[Molden Format]
[FREQ]
    0.00
    0.00
    0.00
  873.66
 1583.14
 1583.21
[FR-COORD]
   C           0.00000        0.00000        0.00000
   C           4.64760        0.00000        0.00000
[FR-NORM-COORD]
 vibration     1
   0.36389   0.60389  -0.05390
   0.36389   0.60389  -0.05390
 vibration     2
  -0.20173   0.06132  -0.67494
  -0.20173   0.06132  -0.67494
 vibration     3
  -0.57174   0.36271   0.20383
  -0.57174   0.36271   0.20383
 vibration     4
   0.00000  -0.00000  -0.70711
   0.00000  -0.00000   0.70711
 vibration     5
   0.70711   0.00000   0.00000
  -0.70711   0.00000   0.00000
 vibration     6
  -0.00000   0.70711  -0.00000
   0.00000  -0.70711   0.00000
