
     Program PHONON v.6.3MaX starts on  8Mar2023 at 11:24:27 

     This program is part of the open-source Quantum ESPRESSO suite
     for quantum simulation of materials; please cite
         "P. Giannozzi et al., J. Phys.:Condens. Matter 21 395502 (2009);
         "P. Giannozzi et al., J. Phys.:Condens. Matter 29 465901 (2017);
          URL http://www.quantum-espresso.org", 
     in publications or presentations arising from this work. More details at
     http://www.quantum-espresso.org/quote

     Parallel version (MPI), running on    12 processors

     MPI processes distributed on     1 nodes
     R & G space division:  proc/nbgrp/npool/nimage =      12

     Reading data from directory:
     ./GraphPhon.save/
     Message from routine volume:
     axis vectors are left-handed
     Message from routine volume:
     axis vectors are left-handed

     IMPORTANT: XC functional enforced from input :
     Exchange-correlation      = PBE ( 1  4  3  4 0 0)
     Any further DFT definition will be discarded
     Please, verify this is what you really want


     Parallelization info
     --------------------
     sticks:   dense  smooth     PW     G-vecs:    dense   smooth      PW
     Min          20      20      7                 1010     1010     211
     Max          21      21      8                 1023     1023     226
     Sum         241     241     85                12161    12161    2589


     Check: negative/imaginary core charge=   -0.000019    0.000000

     negative rho (up, down):  1.156E-03 0.000E+00


     Dynamical matrices for ( 4, 4, 4)  uniform grid of q-points
     (  21 q-points):
       N         xq(1)         xq(2)         xq(3) 
       1   0.000000000   0.000000000   0.000000000
       2   0.000000000   0.000000000   0.061485036
       3   0.000000000   0.000000000  -0.122970072
       4   0.144337801  -0.250000000   0.000000000
       5   0.144337801  -0.250000000   0.061485036
       6   0.144337801  -0.250000000  -0.122970072
       7  -0.288675603   0.500000000   0.000000000
       8  -0.288675603   0.500000000   0.061485036
       9  -0.288675603   0.500000000  -0.122970072
      10   0.288675603   0.000000000   0.000000000
      11   0.288675603   0.000000000   0.061485036
      12   0.288675603   0.000000000  -0.122970072
      13  -0.144337801   0.750000000   0.000000000
      14  -0.144337801   0.750000000   0.061485036
      15  -0.144337801   0.750000000  -0.122970072
      16   0.000000000   0.500000000   0.000000000
      17   0.000000000   0.500000000   0.061485036
      18   0.000000000   0.500000000  -0.122970072
      19  -0.577351205   0.000000000   0.000000000
      20  -0.577351205   0.000000000   0.061485036
      21  -0.577351205   0.000000000  -0.122970072

     Calculation of q =    0.0000000   0.0000000   0.0000000

     Phonon calculation graphene                                                

     bravais-lattice index     =            0
     lattice parameter (alat)  =       4.6476  a.u.
     unit-cell volume          =     353.4961 (a.u.)^3
     number of atoms/cell      =            2
     number of atomic types    =            1
     kinetic-energy cut-off    =      40.0000  Ry
     charge density cut-off    =     160.0000  Ry
     convergence threshold     =      1.0E-14
     beta                      =       0.7000
     number of iterations used =            4
     Exchange-correlation      = PBE ( 1  4  3  4 0 0)


     celldm(1)=    8.04985  celldm(2)=    0.57735  celldm(3)=    2.34753
     celldm(4)=    0.00000  celldm(5)=    0.00000  celldm(6)=    0.00000

     crystal axes: (cart. coord. in units of alat)
               a(1) = (  0.8660  0.5000  0.0000 )  
               a(2) = (  0.8660 -0.5000  0.0000 )  
               a(3) = (  0.0000  0.0000  4.0660 )  

     reciprocal axes: (cart. coord. in units 2 pi/alat)
               b(1) = (  0.5774  1.0000 -0.0000 )  
               b(2) = (  0.5774 -1.0000 -0.0000 )  
               b(3) = ( -0.0000 -0.0000  0.2459 )  


     Atoms inside the unit cell: 

     Cartesian axes

     site n.  atom      mass           positions (alat units)
        1     C   12.0110   tau(    1) = (    0.00000    0.00000    0.00000  )
        2     C   12.0110   tau(    2) = (    0.57735    0.00000    0.00000  )

     Computing dynamical matrix for 
                    q = (   0.0000000   0.0000000   0.0000000 )

      5 Sym.Ops. (with q -> -q+G )


     G cutoff =   87.5420  (   1014 G-vectors)     FFT grid: ( 20, 20, 80)
     number of k points=    31

     PseudoPot. # 1 for C  read from file:
     /q-e-qe-6.3/pseudo/C.pbe-n-rrkjus_psl.1.0.0.UPF
     MD5 check sum: 1fdd950c42eb37d8afe3dd2f8d12311e
     Pseudo is Ultrasoft + core correction, Zval =  4.0
     Generated using "atomic" code by A. Dal Corso v.6.3MaX
     Using radial grid of 1073 points,  4 beta functions with: 
                l(1) =   0
                l(2) =   0
                l(3) =   1
                l(4) =   1
     Q(r) pseudized with 0 coefficients 


     Mode symmetry, C_2v (mm2)  point group:


     Electric field:
     Dielectric constant
     Born effective charges in two ways 


     Atomic displacements:
     There are   6 irreducible representations

     Representation     1      1 modes -A_1  D_1  S_1  To be done

     Representation     2      1 modes -A_1  D_1  S_1  To be done

     Representation     3      1 modes -B_1  D_3  S_3  To be done

     Representation     4      1 modes -B_1  D_3  S_3  To be done

     Representation     5      1 modes -B_2  D_4  S_4  To be done

     Representation     6      1 modes -B_2  D_4  S_4  To be done



     Alpha used in Ewald sum =   1.7000

     negative rho (up, down):  1.156E-03 0.000E+00
     PHONON       :     1.07s CPU         1.42s WALL


     Electric Fields Calculation

      iter #   1 total cpu time :     4.9 secs   av.it.:   5.2
      thresh= 1.000E-02 alpha_mix =  0.700 |ddv_scf|^2 =  2.122E-05

      iter #   2 total cpu time :     5.8 secs   av.it.:   6.7
      thresh= 4.607E-04 alpha_mix =  0.700 |ddv_scf|^2 =  1.257E-05

      iter #   3 total cpu time :     6.8 secs   av.it.:   5.3
      thresh= 3.545E-04 alpha_mix =  0.700 |ddv_scf|^2 =  7.585E-08

      iter #   4 total cpu time :     7.8 secs   av.it.:   7.2
      thresh= 2.754E-05 alpha_mix =  0.700 |ddv_scf|^2 =  3.695E-10

      iter #   5 total cpu time :     8.7 secs   av.it.:   7.4
      thresh= 1.922E-06 alpha_mix =  0.700 |ddv_scf|^2 =  5.091E-12

      iter #   6 total cpu time :    10.2 secs   av.it.:   7.7
      thresh= 2.256E-07 alpha_mix =  0.700 |ddv_scf|^2 =  2.046E-14

      iter #   7 total cpu time :    11.6 secs   av.it.:   8.3
      thresh= 1.430E-08 alpha_mix =  0.700 |ddv_scf|^2 =  3.765E-16

     End of electric fields calculation

          Dielectric constant in cartesian axis 

          (       4.352007410      -0.000000000       0.000000000 )
          (      -0.000000000       4.352027435       0.000000000 )
          (      -0.000000000       0.000000000       1.262725367 )

          Effective charges (d Force / dE) in cartesian axis

           atom      1   C  
      Ex  (        0.05555        0.00000        0.00000 )
      Ey  (        0.00000        0.05557        0.00000 )
      Ez  (        0.00000        0.00000       -0.00179 )
           atom      2   C  
      Ex  (        0.06053       -0.00000        0.00000 )
      Ey  (        0.00000        0.06053        0.00000 )
      Ez  (        0.00000        0.00000       -0.00067 )


     Representation #  1 mode #   1

     Self-consistent Calculation

      iter #   1 total cpu time :    12.7 secs   av.it.:   5.4
      thresh= 1.000E-02 alpha_mix =  0.700 |ddv_scf|^2 =  1.196E-06

      iter #   2 total cpu time :    13.2 secs   av.it.:   8.2
      thresh= 1.094E-04 alpha_mix =  0.700 |ddv_scf|^2 =  6.386E-08

      iter #   3 total cpu time :    13.6 secs   av.it.:   7.3
      thresh= 2.527E-05 alpha_mix =  0.700 |ddv_scf|^2 =  1.477E-09

      iter #   4 total cpu time :    14.1 secs   av.it.:   7.4
      thresh= 3.843E-06 alpha_mix =  0.700 |ddv_scf|^2 =  3.689E-12

      iter #   5 total cpu time :    14.5 secs   av.it.:   7.6
      thresh= 1.921E-07 alpha_mix =  0.700 |ddv_scf|^2 =  1.160E-14

      iter #   6 total cpu time :    15.1 secs   av.it.:   8.3
      thresh= 1.077E-08 alpha_mix =  0.700 |ddv_scf|^2 =  5.574E-16

     End of self-consistent calculation

     Convergence has been achieved 


     Representation #  2 mode #   2

     Self-consistent Calculation

      iter #   1 total cpu time :    15.5 secs   av.it.:   5.4
      thresh= 1.000E-02 alpha_mix =  0.700 |ddv_scf|^2 =  1.825E-06

      iter #   2 total cpu time :    15.9 secs   av.it.:   8.1
      thresh= 1.351E-04 alpha_mix =  0.700 |ddv_scf|^2 =  1.067E-07

      iter #   3 total cpu time :    16.3 secs   av.it.:   7.1
      thresh= 3.266E-05 alpha_mix =  0.700 |ddv_scf|^2 =  1.900E-09

      iter #   4 total cpu time :    16.8 secs   av.it.:   7.3
      thresh= 4.359E-06 alpha_mix =  0.700 |ddv_scf|^2 =  4.050E-12

      iter #   5 total cpu time :    17.2 secs   av.it.:   7.9
      thresh= 2.013E-07 alpha_mix =  0.700 |ddv_scf|^2 =  1.577E-14

      iter #   6 total cpu time :    17.7 secs   av.it.:   8.2
      thresh= 1.256E-08 alpha_mix =  0.700 |ddv_scf|^2 =  6.649E-16

     End of self-consistent calculation

     Convergence has been achieved 


     Representation #  3 mode #   3

     Self-consistent Calculation

      iter #   1 total cpu time :    18.1 secs   av.it.:   5.6
      thresh= 1.000E-02 alpha_mix =  0.700 |ddv_scf|^2 =  7.984E-05

      iter #   2 total cpu time :    18.6 secs   av.it.:   7.6
      thresh= 8.935E-04 alpha_mix =  0.700 |ddv_scf|^2 =  6.103E-05

      iter #   3 total cpu time :    19.0 secs   av.it.:   7.0
      thresh= 7.812E-04 alpha_mix =  0.700 |ddv_scf|^2 =  7.876E-08

      iter #   4 total cpu time :    19.4 secs   av.it.:   6.8
      thresh= 2.806E-05 alpha_mix =  0.700 |ddv_scf|^2 =  2.887E-10

      iter #   5 total cpu time :    19.9 secs   av.it.:   7.4
      thresh= 1.699E-06 alpha_mix =  0.700 |ddv_scf|^2 =  1.153E-11

      iter #   6 total cpu time :    20.3 secs   av.it.:   7.0
      thresh= 3.396E-07 alpha_mix =  0.700 |ddv_scf|^2 =  2.529E-14

      iter #   7 total cpu time :    20.8 secs   av.it.:   7.5
      thresh= 1.590E-08 alpha_mix =  0.700 |ddv_scf|^2 =  2.123E-16

     End of self-consistent calculation

     Convergence has been achieved 


     Representation #  4 mode #   4

     Self-consistent Calculation

      iter #   1 total cpu time :    21.2 secs   av.it.:   5.6
      thresh= 1.000E-02 alpha_mix =  0.700 |ddv_scf|^2 =  8.008E-05

      iter #   2 total cpu time :    21.7 secs   av.it.:   7.7
      thresh= 8.949E-04 alpha_mix =  0.700 |ddv_scf|^2 =  6.093E-05

      iter #   3 total cpu time :    22.1 secs   av.it.:   7.0
      thresh= 7.806E-04 alpha_mix =  0.700 |ddv_scf|^2 =  7.219E-08

      iter #   4 total cpu time :    22.6 secs   av.it.:   6.8
      thresh= 2.687E-05 alpha_mix =  0.700 |ddv_scf|^2 =  2.719E-10

      iter #   5 total cpu time :    23.0 secs   av.it.:   7.3
      thresh= 1.649E-06 alpha_mix =  0.700 |ddv_scf|^2 =  1.367E-11

      iter #   6 total cpu time :    23.4 secs   av.it.:   6.9
      thresh= 3.697E-07 alpha_mix =  0.700 |ddv_scf|^2 =  2.049E-14

      iter #   7 total cpu time :    23.9 secs   av.it.:   7.6
      thresh= 1.432E-08 alpha_mix =  0.700 |ddv_scf|^2 =  2.286E-16

     End of self-consistent calculation

     Convergence has been achieved 


     Representation #  5 mode #   5

     Self-consistent Calculation

      iter #   1 total cpu time :    24.3 secs   av.it.:   5.3
      thresh= 1.000E-02 alpha_mix =  0.700 |ddv_scf|^2 =  1.837E-06

      iter #   2 total cpu time :    24.8 secs   av.it.:   8.0
      thresh= 1.355E-04 alpha_mix =  0.700 |ddv_scf|^2 =  1.074E-07

      iter #   3 total cpu time :    25.3 secs   av.it.:   7.0
      thresh= 3.277E-05 alpha_mix =  0.700 |ddv_scf|^2 =  1.914E-09

      iter #   4 total cpu time :    25.8 secs   av.it.:   7.2
      thresh= 4.375E-06 alpha_mix =  0.700 |ddv_scf|^2 =  4.107E-12

      iter #   5 total cpu time :    26.2 secs   av.it.:   7.7
      thresh= 2.026E-07 alpha_mix =  0.700 |ddv_scf|^2 =  8.505E-15

     End of self-consistent calculation

     Convergence has been achieved 


     Representation #  6 mode #   6

     Self-consistent Calculation

      iter #   1 total cpu time :    26.6 secs   av.it.:   5.3
      thresh= 1.000E-02 alpha_mix =  0.700 |ddv_scf|^2 =  1.165E-06

      iter #   2 total cpu time :    27.1 secs   av.it.:   8.2
      thresh= 1.079E-04 alpha_mix =  0.700 |ddv_scf|^2 =  6.174E-08

      iter #   3 total cpu time :    27.5 secs   av.it.:   7.1
      thresh= 2.485E-05 alpha_mix =  0.700 |ddv_scf|^2 =  1.460E-09

      iter #   4 total cpu time :    28.0 secs   av.it.:   7.3
      thresh= 3.821E-06 alpha_mix =  0.700 |ddv_scf|^2 =  3.724E-12

      iter #   5 total cpu time :    28.5 secs   av.it.:   7.5
      thresh= 1.930E-07 alpha_mix =  0.700 |ddv_scf|^2 =  4.601E-15

     End of self-consistent calculation

     Convergence has been achieved 

     Number of q in the star =    1
     List of q in the star:
          1   0.000000000   0.000000000   0.000000000

          Dielectric constant in cartesian axis 

          (       4.352007410      -0.000000000       0.000000000 )
          (      -0.000000000       4.352027435       0.000000000 )
          (      -0.000000000       0.000000000       1.262725367 )

          Effective charges (d Force / dE) in cartesian axis

           atom      1   C  
      Ex  (        0.05555        0.00000        0.00000 )
      Ey  (        0.00000        0.05557        0.00000 )
      Ez  (        0.00000        0.00000       -0.00179 )
           atom      2   C  
      Ex  (        0.06053       -0.00000        0.00000 )
      Ey  (        0.00000        0.06053        0.00000 )
      Ez  (        0.00000        0.00000       -0.00067 )

          Effective charges (d P / du) in cartesian axis 

           atom      1   C  
      Px  (        0.05555        0.00000        0.00000 )
      Py  (        0.00000        0.05554        0.00000 )
      Pz  (        0.00000        0.00000       -0.00175 )
           atom      2   C  
      Px  (        0.06052        0.00000        0.00000 )
      Py  (        0.00000        0.06050        0.00000 )
      Pz  (        0.00000        0.00000       -0.00064 )

     Diagonalizing the dynamical matrix

     q = (    0.000000000   0.000000000   0.000000000 ) 

 **************************************************************************
     freq (    1) =      -1.128925 [THz] =     -37.656888 [cm-1]
     freq (    2) =      -1.085628 [THz] =     -36.212641 [cm-1]
     freq (    3) =       4.088161 [THz] =     136.366381 [cm-1]
     freq (    4) =      26.509697 [THz] =     884.268305 [cm-1]
     freq (    5) =      47.453567 [THz] =    1582.880599 [cm-1]
     freq (    6) =      47.454704 [THz] =    1582.918543 [cm-1]
 **************************************************************************

     Mode symmetry, C_2v (mm2)  point group:

     freq (  1 -  1) =        -37.7  [cm-1]   --> B_2  D_4  S_4   I+R
     freq (  2 -  2) =        -36.2  [cm-1]   --> A_1  D_1  S_1   I+R
     freq (  3 -  3) =        136.4  [cm-1]   --> B_1  D_3  S_3   I+R
     freq (  4 -  4) =        884.3  [cm-1]   --> B_1  D_3  S_3   I+R
     freq (  5 -  5) =       1582.9  [cm-1]   --> A_1  D_1  S_1   I+R
     freq (  6 -  6) =       1582.9  [cm-1]   --> B_2  D_4  S_4   I+R

     Calculation of q =    0.0000000   0.0000000   0.0614850

     Subspace diagonalization in iterative solution of the eigenvalue problem:
     a serial algorithm will be used


     Parallelization info
     --------------------
     sticks:   dense  smooth     PW     G-vecs:    dense   smooth      PW
     Min          20      20      7                 1010     1010     211
     Max          21      21      8                 1023     1023     226
     Sum         241     241     85                12161    12161    2589


     Title: 
     Phonon calculation graphene                                                


     bravais-lattice index     =            0
     lattice parameter (alat)  =       4.6476  a.u.
     unit-cell volume          =     353.4961 (a.u.)^3
     number of atoms/cell      =            2
     number of atomic types    =            1
     number of electrons       =         8.00
     number of Kohn-Sham states=            4
     kinetic-energy cutoff     =      40.0000  Ry
     charge density cutoff     =     160.0000  Ry
     Exchange-correlation      = PBE ( 1  4  3  4 0 0)

     celldm(1)=   8.049853  celldm(2)=   0.577351  celldm(3)=   2.347527
     celldm(4)=   0.000000  celldm(5)=   0.000000  celldm(6)=   0.000000

     crystal axes: (cart. coord. in units of alat)
               a(1) = (   0.866024   0.500000   0.000000 )  
               a(2) = (   0.866024  -0.500000   0.000000 )  
               a(3) = (   0.000000   0.000000   4.066030 )  

     reciprocal axes: (cart. coord. in units 2 pi/alat)
               b(1) = (  0.577351  1.000000 -0.000000 )  
               b(2) = (  0.577351 -1.000000 -0.000000 )  
               b(3) = ( -0.000000 -0.000000  0.245940 )  


     PseudoPot. # 1 for C  read from file:
     /q-e-qe-6.3/pseudo/C.pbe-n-rrkjus_psl.1.0.0.UPF
     MD5 check sum: 1fdd950c42eb37d8afe3dd2f8d12311e
     Pseudo is Ultrasoft + core correction, Zval =  4.0
     Generated using "atomic" code by A. Dal Corso v.6.3MaX
     Using radial grid of 1073 points,  4 beta functions with: 
                l(1) =   0
                l(2) =   0
                l(3) =   1
                l(4) =   1
     Q(r) pseudized with 0 coefficients 


     atomic species   valence    mass     pseudopotential
        C              4.00    12.01100     C ( 1.00)

      4 Sym. Ops. (no inversion) found



   Cartesian axes

     site n.     atom                  positions (alat units)
         1           C   tau(   1) = (   0.0000000   0.0000000   0.0000000  )
         2           C   tau(   2) = (   0.5773520   0.0000000   0.0000000  )

     number of k points=   110

     Number of k-points >= 100: set verbosity='high' to print them.

     Dense  grid:    12161 G-vectors     FFT dimensions: (  20,  20,  80)

     Estimated max dynamical RAM per process >       1.28 MB

     Estimated total dynamical RAM >      15.41 MB

     Check: negative/imaginary core charge=   -0.000019    0.000000

     The potential is recalculated from file :
     ./_ph0/GraphPhon.save/charge-density.dat


     negative rho (up, down):  1.156E-03 0.000E+00
     Starting wfcs are    8 atomic wfcs

     Band Structure Calculation
     Davidson diagonalization with overlap

     ethr =  1.25E-10,  avg # of iterations =  9.0

     total cpu time spent up to now is        1.9 secs

     End of band structure calculation

     Number of k-points >= 100: set verbosity='high' to print the bands.

     highest occupied level (ev):    -1.4578

     Writing output data file GraphPhon.save/

     Phonon calculation graphene                                                

     bravais-lattice index     =            0
     lattice parameter (alat)  =       4.6476  a.u.
     unit-cell volume          =     353.4961 (a.u.)^3
     number of atoms/cell      =            2
     number of atomic types    =            1
     kinetic-energy cut-off    =      40.0000  Ry
     charge density cut-off    =     160.0000  Ry
     convergence threshold     =      1.0E-14
     beta                      =       0.7000
     number of iterations used =            4
     Exchange-correlation      = PBE ( 1  4  3  4 0 0)


     celldm(1)=    8.04985  celldm(2)=    0.57735  celldm(3)=    2.34753
     celldm(4)=    0.00000  celldm(5)=    0.00000  celldm(6)=    0.00000

     crystal axes: (cart. coord. in units of alat)
               a(1) = (  0.8660  0.5000  0.0000 )  
               a(2) = (  0.8660 -0.5000  0.0000 )  
               a(3) = (  0.0000  0.0000  4.0660 )  

     reciprocal axes: (cart. coord. in units 2 pi/alat)
               b(1) = (  0.5774  1.0000 -0.0000 )  
               b(2) = (  0.5774 -1.0000 -0.0000 )  
               b(3) = ( -0.0000 -0.0000  0.2459 )  


     Atoms inside the unit cell: 

     Cartesian axes

     site n.  atom      mass           positions (alat units)
        1     C   12.0110   tau(    1) = (    0.00000    0.00000    0.00000  )
        2     C   12.0110   tau(    2) = (    0.57735    0.00000    0.00000  )

     Computing dynamical matrix for 
                    q = (   0.0000000   0.0000000   0.0614850 )

      2 Sym.Ops. (no q -> -q+G )


     G cutoff =   87.5420  (   1014 G-vectors)     FFT grid: ( 20, 20, 80)
     number of k points=   110

     PseudoPot. # 1 for C  read from file:
     /q-e-qe-6.3/pseudo/C.pbe-n-rrkjus_psl.1.0.0.UPF
     MD5 check sum: 1fdd950c42eb37d8afe3dd2f8d12311e
     Pseudo is Ultrasoft + core correction, Zval =  4.0
     Generated using "atomic" code by A. Dal Corso v.6.3MaX
     Using radial grid of 1073 points,  4 beta functions with: 
                l(1) =   0
                l(2) =   0
                l(3) =   1
                l(4) =   1
     Q(r) pseudized with 0 coefficients 


     Mode symmetry, C_s (m)     point group:


     Atomic displacements:
     There are   6 irreducible representations

     Representation     1      1 modes -A'  To be done

     Representation     2      1 modes -A'  To be done

     Representation     3      1 modes -A'  To be done

     Representation     4      1 modes -A'  To be done

     Representation     5      1 modes -A''  To be done

     Representation     6      1 modes -A''  To be done



     Alpha used in Ewald sum =   1.7000

     negative rho (up, down):  1.156E-03 0.000E+00
     PHONON       :    20.83s CPU        31.07s WALL



     Representation #  1 mode #   1

     Self-consistent Calculation

      iter #   1 total cpu time :    31.7 secs   av.it.:   6.0
      thresh= 1.000E-02 alpha_mix =  0.700 |ddv_scf|^2 =  1.099E-03

      iter #   2 total cpu time :    32.3 secs   av.it.:   6.8
      thresh= 3.316E-03 alpha_mix =  0.700 |ddv_scf|^2 =  1.827E-03

      iter #   3 total cpu time :    32.9 secs   av.it.:   6.1
      thresh= 4.275E-03 alpha_mix =  0.700 |ddv_scf|^2 =  1.682E-06

      iter #   4 total cpu time :    33.5 secs   av.it.:   6.3
      thresh= 1.297E-04 alpha_mix =  0.700 |ddv_scf|^2 =  1.949E-09

      iter #   5 total cpu time :    34.3 secs   av.it.:   7.4
      thresh= 4.415E-06 alpha_mix =  0.700 |ddv_scf|^2 =  2.704E-09

      iter #   6 total cpu time :    35.0 secs   av.it.:   6.4
      thresh= 5.200E-06 alpha_mix =  0.700 |ddv_scf|^2 =  3.123E-13

      iter #   7 total cpu time :    35.9 secs   av.it.:   7.8
      thresh= 5.588E-08 alpha_mix =  0.700 |ddv_scf|^2 =  1.321E-14

      iter #   8 total cpu time :    37.0 secs   av.it.:   8.4
      thresh= 1.149E-08 alpha_mix =  0.700 |ddv_scf|^2 =  2.025E-14

      iter #   9 total cpu time :    38.2 secs   av.it.:   7.5
      thresh= 1.423E-08 alpha_mix =  0.700 |ddv_scf|^2 =  5.414E-16

     End of self-consistent calculation

     Convergence has been achieved 


     Representation #  2 mode #   2

     Self-consistent Calculation

      iter #   1 total cpu time :    38.8 secs   av.it.:   5.9
      thresh= 1.000E-02 alpha_mix =  0.700 |ddv_scf|^2 =  1.110E-03

      iter #   2 total cpu time :    39.8 secs   av.it.:   6.8
      thresh= 3.331E-03 alpha_mix =  0.700 |ddv_scf|^2 =  1.844E-03

      iter #   3 total cpu time :    40.7 secs   av.it.:   6.1
      thresh= 4.294E-03 alpha_mix =  0.700 |ddv_scf|^2 =  1.692E-06

      iter #   4 total cpu time :    41.5 secs   av.it.:   6.2
      thresh= 1.301E-04 alpha_mix =  0.700 |ddv_scf|^2 =  2.044E-09

      iter #   5 total cpu time :    42.4 secs   av.it.:   7.4
      thresh= 4.521E-06 alpha_mix =  0.700 |ddv_scf|^2 =  2.774E-09

      iter #   6 total cpu time :    43.1 secs   av.it.:   6.4
      thresh= 5.267E-06 alpha_mix =  0.700 |ddv_scf|^2 =  1.265E-13

      iter #   7 total cpu time :    44.1 secs   av.it.:   8.2
      thresh= 3.557E-08 alpha_mix =  0.700 |ddv_scf|^2 =  1.335E-14

      iter #   8 total cpu time :    45.2 secs   av.it.:   8.6
      thresh= 1.155E-08 alpha_mix =  0.700 |ddv_scf|^2 =  2.635E-15

     End of self-consistent calculation

     Convergence has been achieved 


     Representation #  3 mode #   3

     Self-consistent Calculation

      iter #   1 total cpu time :    46.3 secs   av.it.:   6.0
      thresh= 1.000E-02 alpha_mix =  0.700 |ddv_scf|^2 =  1.349E-05

      iter #   2 total cpu time :    47.5 secs   av.it.:   8.3
      thresh= 3.673E-04 alpha_mix =  0.700 |ddv_scf|^2 =  2.049E-05

      iter #   3 total cpu time :    48.5 secs   av.it.:   6.3
      thresh= 4.527E-04 alpha_mix =  0.700 |ddv_scf|^2 =  3.462E-08

      iter #   4 total cpu time :    49.5 secs   av.it.:   7.2
      thresh= 1.861E-05 alpha_mix =  0.700 |ddv_scf|^2 =  5.418E-10

      iter #   5 total cpu time :    50.6 secs   av.it.:   8.1
      thresh= 2.328E-06 alpha_mix =  0.700 |ddv_scf|^2 =  5.587E-11

      iter #   6 total cpu time :    51.3 secs   av.it.:   7.2
      thresh= 7.475E-07 alpha_mix =  0.700 |ddv_scf|^2 =  3.485E-13

      iter #   7 total cpu time :    52.2 secs   av.it.:   8.0
      thresh= 5.904E-08 alpha_mix =  0.700 |ddv_scf|^2 =  4.567E-14

      iter #   8 total cpu time :    53.1 secs   av.it.:   8.0
      thresh= 2.137E-08 alpha_mix =  0.700 |ddv_scf|^2 =  3.173E-15

     End of self-consistent calculation

     Convergence has been achieved 


     Representation #  4 mode #   4

     Self-consistent Calculation

      iter #   1 total cpu time :    53.9 secs   av.it.:   5.5
      thresh= 1.000E-02 alpha_mix =  0.700 |ddv_scf|^2 =  4.300E-06

      iter #   2 total cpu time :    54.8 secs   av.it.:   8.7
      thresh= 2.074E-04 alpha_mix =  0.700 |ddv_scf|^2 =  4.155E-06

      iter #   3 total cpu time :    55.6 secs   av.it.:   6.8
      thresh= 2.038E-04 alpha_mix =  0.700 |ddv_scf|^2 =  1.021E-07

      iter #   4 total cpu time :    56.5 secs   av.it.:   7.8
      thresh= 3.195E-05 alpha_mix =  0.700 |ddv_scf|^2 =  9.435E-10

      iter #   5 total cpu time :    57.4 secs   av.it.:   8.0
      thresh= 3.072E-06 alpha_mix =  0.700 |ddv_scf|^2 =  2.308E-11

      iter #   6 total cpu time :    58.3 secs   av.it.:   7.8
      thresh= 4.804E-07 alpha_mix =  0.700 |ddv_scf|^2 =  4.895E-13

      iter #   7 total cpu time :    59.1 secs   av.it.:   7.6
      thresh= 6.997E-08 alpha_mix =  0.700 |ddv_scf|^2 =  2.181E-15

     End of self-consistent calculation

     Convergence has been achieved 


     Representation #  5 mode #   5

     Self-consistent Calculation

      iter #   1 total cpu time :    59.8 secs   av.it.:   5.3
      thresh= 1.000E-02 alpha_mix =  0.700 |ddv_scf|^2 =  1.844E-06

      iter #   2 total cpu time :    60.7 secs   av.it.:   8.0
      thresh= 1.358E-04 alpha_mix =  0.700 |ddv_scf|^2 =  1.084E-07

      iter #   3 total cpu time :    61.5 secs   av.it.:   6.9
      thresh= 3.292E-05 alpha_mix =  0.700 |ddv_scf|^2 =  1.903E-09

      iter #   4 total cpu time :    62.2 secs   av.it.:   7.2
      thresh= 4.362E-06 alpha_mix =  0.700 |ddv_scf|^2 =  4.533E-12

      iter #   5 total cpu time :    62.9 secs   av.it.:   7.7
      thresh= 2.129E-07 alpha_mix =  0.700 |ddv_scf|^2 =  7.924E-15

     End of self-consistent calculation

     Convergence has been achieved 


     Representation #  6 mode #   6

     Self-consistent Calculation

      iter #   1 total cpu time :    63.4 secs   av.it.:   5.3
      thresh= 1.000E-02 alpha_mix =  0.700 |ddv_scf|^2 =  1.195E-06

      iter #   2 total cpu time :    64.1 secs   av.it.:   8.1
      thresh= 1.093E-04 alpha_mix =  0.700 |ddv_scf|^2 =  6.474E-08

      iter #   3 total cpu time :    64.7 secs   av.it.:   7.1
      thresh= 2.544E-05 alpha_mix =  0.700 |ddv_scf|^2 =  1.455E-09

      iter #   4 total cpu time :    65.4 secs   av.it.:   7.3
      thresh= 3.814E-06 alpha_mix =  0.700 |ddv_scf|^2 =  4.061E-12

      iter #   5 total cpu time :    66.2 secs   av.it.:   7.5
      thresh= 2.015E-07 alpha_mix =  0.700 |ddv_scf|^2 =  4.398E-15

     End of self-consistent calculation

     Convergence has been achieved 

     Number of q in the star =    2
     List of q in the star:
          1   0.000000000   0.000000000   0.061485036
          2   0.000000000   0.000000000  -0.061485036

     Diagonalizing the dynamical matrix

     q = (    0.000000000   0.000000000   0.061485036 ) 

 **************************************************************************
     freq (    1) =      -1.083023 [THz] =     -36.125748 [cm-1]
     freq (    2) =      -1.028235 [THz] =     -34.298225 [cm-1]
     freq (    3) =       4.017054 [THz] =     133.994504 [cm-1]
     freq (    4) =      26.508721 [THz] =     884.235759 [cm-1]
     freq (    5) =      47.453738 [THz] =    1582.886312 [cm-1]
     freq (    6) =      47.454899 [THz] =    1582.925061 [cm-1]
 **************************************************************************

     Mode symmetry, C_s (m)     point group:

     freq (  1 -  1) =        -36.1  [cm-1]   --> A''                
     freq (  2 -  2) =        -34.3  [cm-1]   --> A'                 
     freq (  3 -  3) =        134.0  [cm-1]   --> A'                 
     freq (  4 -  4) =        884.2  [cm-1]   --> A'                 
     freq (  5 -  5) =       1582.9  [cm-1]   --> A'                 
     freq (  6 -  6) =       1582.9  [cm-1]   --> A''                

     Calculation of q =    0.0000000   0.0000000  -0.1229701

     Parallelization info
     --------------------
     sticks:   dense  smooth     PW     G-vecs:    dense   smooth      PW
     Min          20      20      7                 1010     1010     213
     Max          21      21      8                 1023     1023     228
     Sum         241     241     85                12161    12161    2613


     Title: 
     Phonon calculation graphene                                                


     bravais-lattice index     =            0
     lattice parameter (alat)  =       4.6476  a.u.
     unit-cell volume          =     353.4961 (a.u.)^3
     number of atoms/cell      =            2
     number of atomic types    =            1
     number of electrons       =         8.00
     number of Kohn-Sham states=            4
     kinetic-energy cutoff     =      40.0000  Ry
     charge density cutoff     =     160.0000  Ry
     Exchange-correlation      = PBE ( 1  4  3  4 0 0)

     celldm(1)=   8.049853  celldm(2)=   0.577351  celldm(3)=   2.347527
     celldm(4)=   0.000000  celldm(5)=   0.000000  celldm(6)=   0.000000

     crystal axes: (cart. coord. in units of alat)
               a(1) = (   0.866024   0.500000   0.000000 )  
               a(2) = (   0.866024  -0.500000   0.000000 )  
               a(3) = (   0.000000   0.000000   4.066030 )  

     reciprocal axes: (cart. coord. in units 2 pi/alat)
               b(1) = (  0.577351  1.000000 -0.000000 )  
               b(2) = (  0.577351 -1.000000 -0.000000 )  
               b(3) = ( -0.000000 -0.000000  0.245940 )  


     PseudoPot. # 1 for C  read from file:
     /q-e-qe-6.3/pseudo/C.pbe-n-rrkjus_psl.1.0.0.UPF
     MD5 check sum: 1fdd950c42eb37d8afe3dd2f8d12311e
     Pseudo is Ultrasoft + core correction, Zval =  4.0
     Generated using "atomic" code by A. Dal Corso v.6.3MaX
     Using radial grid of 1073 points,  4 beta functions with: 
                l(1) =   0
                l(2) =   0
                l(3) =   1
                l(4) =   1
     Q(r) pseudized with 0 coefficients 


     atomic species   valence    mass     pseudopotential
        C              4.00    12.01100     C ( 1.00)

      4 Sym. Ops. (no inversion) found



   Cartesian axes

     site n.     atom                  positions (alat units)
         1           C   tau(   1) = (   0.0000000   0.0000000   0.0000000  )
         2           C   tau(   2) = (   0.5773520   0.0000000   0.0000000  )

     number of k points=    62
                       cart. coord. in units 2pi/alat
        k(    1) = (   0.0000000   0.0000000   0.0000000), wk =   0.0200000
        k(    2) = (   0.0000000   0.0000000  -0.1229701), wk =   0.0000000
        k(    3) = (   0.0577351  -0.1000000   0.0000000), wk =   0.0800000
        k(    4) = (   0.0577351  -0.1000000  -0.1229701), wk =   0.0000000
        k(    5) = (   0.1154702  -0.2000000   0.0000000), wk =   0.0800000
        k(    6) = (   0.1154702  -0.2000000  -0.1229701), wk =   0.0000000
        k(    7) = (   0.1732054  -0.3000000   0.0000000), wk =   0.0800000
        k(    8) = (   0.1732054  -0.3000000  -0.1229701), wk =   0.0000000
        k(    9) = (   0.2309405  -0.4000000   0.0000000), wk =   0.0800000
        k(   10) = (   0.2309405  -0.4000000  -0.1229701), wk =   0.0000000
        k(   11) = (  -0.2886756   0.5000000   0.0000000), wk =   0.0400000
        k(   12) = (  -0.2886756   0.5000000  -0.1229701), wk =   0.0000000
        k(   13) = (   0.1154702   0.0000000   0.0000000), wk =   0.0400000
        k(   14) = (   0.1154702   0.0000000  -0.1229701), wk =   0.0000000
        k(   15) = (   0.1732054  -0.1000000   0.0000000), wk =   0.0800000
        k(   16) = (   0.1732054  -0.1000000  -0.1229701), wk =   0.0000000
        k(   17) = (   0.2309405  -0.2000000   0.0000000), wk =   0.0800000
        k(   18) = (   0.2309405  -0.2000000  -0.1229701), wk =   0.0000000
        k(   19) = (   0.2886756  -0.3000000   0.0000000), wk =   0.0800000
        k(   20) = (   0.2886756  -0.3000000  -0.1229701), wk =   0.0000000
        k(   21) = (  -0.2309405   0.6000000   0.0000000), wk =   0.0800000
        k(   22) = (  -0.2309405   0.6000000  -0.1229701), wk =   0.0000000
        k(   23) = (  -0.1732054   0.5000000   0.0000000), wk =   0.0800000
        k(   24) = (  -0.1732054   0.5000000  -0.1229701), wk =   0.0000000
        k(   25) = (  -0.1154702   0.4000000   0.0000000), wk =   0.0800000
        k(   26) = (  -0.1154702   0.4000000  -0.1229701), wk =   0.0000000
        k(   27) = (  -0.0577351   0.3000000   0.0000000), wk =   0.0800000
        k(   28) = (  -0.0577351   0.3000000  -0.1229701), wk =   0.0000000
        k(   29) = (   0.0000000   0.2000000   0.0000000), wk =   0.0400000
        k(   30) = (   0.0000000   0.2000000  -0.1229701), wk =   0.0000000
        k(   31) = (   0.2309405   0.0000000   0.0000000), wk =   0.0400000
        k(   32) = (   0.2309405   0.0000000  -0.1229701), wk =   0.0000000
        k(   33) = (   0.2886756  -0.1000000   0.0000000), wk =   0.0800000
        k(   34) = (   0.2886756  -0.1000000  -0.1229701), wk =   0.0000000
        k(   35) = (   0.3464107  -0.2000000   0.0000000), wk =   0.0800000
        k(   36) = (   0.3464107  -0.2000000  -0.1229701), wk =   0.0000000
        k(   37) = (  -0.1732054   0.7000000   0.0000000), wk =   0.0800000
        k(   38) = (  -0.1732054   0.7000000  -0.1229701), wk =   0.0000000
        k(   39) = (  -0.1154702   0.6000000   0.0000000), wk =   0.0800000
        k(   40) = (  -0.1154702   0.6000000  -0.1229701), wk =   0.0000000
        k(   41) = (  -0.0577351   0.5000000   0.0000000), wk =   0.0800000
        k(   42) = (  -0.0577351   0.5000000  -0.1229701), wk =   0.0000000
        k(   43) = (   0.0000000   0.4000000   0.0000000), wk =   0.0400000
        k(   44) = (   0.0000000   0.4000000  -0.1229701), wk =   0.0000000
        k(   45) = (   0.3464107   0.0000000   0.0000000), wk =   0.0400000
        k(   46) = (   0.3464107   0.0000000  -0.1229701), wk =   0.0000000
        k(   47) = (   0.4041458  -0.1000000   0.0000000), wk =   0.0800000
        k(   48) = (   0.4041458  -0.1000000  -0.1229701), wk =   0.0000000
        k(   49) = (  -0.1154702   0.8000000   0.0000000), wk =   0.0800000
        k(   50) = (  -0.1154702   0.8000000  -0.1229701), wk =   0.0000000
        k(   51) = (  -0.0577351   0.7000000   0.0000000), wk =   0.0800000
        k(   52) = (  -0.0577351   0.7000000  -0.1229701), wk =   0.0000000
        k(   53) = (  -0.0000000   0.6000000   0.0000000), wk =   0.0400000
        k(   54) = (  -0.0000000   0.6000000  -0.1229701), wk =   0.0000000
        k(   55) = (   0.4618810   0.0000000   0.0000000), wk =   0.0400000
        k(   56) = (   0.4618810   0.0000000  -0.1229701), wk =   0.0000000
        k(   57) = (  -0.0577351   0.9000000   0.0000000), wk =   0.0800000
        k(   58) = (  -0.0577351   0.9000000  -0.1229701), wk =   0.0000000
        k(   59) = (   0.0000000   0.8000000   0.0000000), wk =   0.0400000
        k(   60) = (   0.0000000   0.8000000  -0.1229701), wk =   0.0000000
        k(   61) = (  -0.5773512   0.0000000   0.0000000), wk =   0.0200000
        k(   62) = (  -0.5773512   0.0000000  -0.1229701), wk =   0.0000000

     Dense  grid:    12161 G-vectors     FFT dimensions: (  20,  20,  80)

     Estimated max dynamical RAM per process >       1.29 MB

     Estimated total dynamical RAM >      15.42 MB

     Check: negative/imaginary core charge=   -0.000019    0.000000

     The potential is recalculated from file :
     ./_ph0/GraphPhon.save/charge-density.dat


     negative rho (up, down):  1.156E-03 0.000E+00
     Starting wfcs are    8 atomic wfcs

     Band Structure Calculation
     Davidson diagonalization with overlap

     ethr =  1.25E-10,  avg # of iterations =  8.9

     total cpu time spent up to now is        2.7 secs

     End of band structure calculation

          k = 0.0000 0.0000 0.0000 (  1527 PWs)   bands (ev):

   -20.0107  -8.1032  -3.4938  -3.4936

          k = 0.0000 0.0000-0.1230 (  1526 PWs)   bands (ev):

   -20.0107  -8.1030  -3.4936  -3.4934

          k = 0.0577-0.1000 0.0000 (  1526 PWs)   bands (ev):

   -19.7740  -7.8193  -4.4122  -3.9708

          k = 0.0577-0.1000-0.1230 (  1510 PWs)   bands (ev):

   -19.7739  -7.8192  -4.4122  -3.9704

          k = 0.1155-0.2000 0.0000 (  1522 PWs)   bands (ev):

   -19.0675  -6.9791  -6.5974  -4.9951

          k = 0.1155-0.2000-0.1230 (  1520 PWs)   bands (ev):

   -19.0675  -6.9792  -6.5975  -4.9949

          k = 0.1732-0.3000 0.0000 (  1514 PWs)   bands (ev):

   -17.9041  -9.2200  -5.9916  -5.6291

          k = 0.1732-0.3000-0.1230 (  1508 PWs)   bands (ev):

   -17.9041  -9.2200  -5.9917  -5.6292

          k = 0.2309-0.4000 0.0000 (  1512 PWs)   bands (ev):

   -16.3167 -11.8055  -6.6659  -3.9340

          k = 0.2309-0.4000-0.1230 (  1516 PWs)   bands (ev):

   -16.3166 -11.8055  -6.6657  -3.9342

          k =-0.2887 0.5000 0.0000 (  1508 PWs)   bands (ev):

   -14.7390 -13.7328  -6.9006  -2.8034

          k =-0.2887 0.5000-0.1230 (  1528 PWs)   bands (ev):

   -14.7390 -13.7328  -6.9011  -2.8036

          k = 0.1155 0.0000 0.0000 (  1526 PWs)   bands (ev):

   -19.7740  -7.8193  -4.4121  -3.9709

          k = 0.1155 0.0000-0.1230 (  1510 PWs)   bands (ev):

   -19.7739  -7.8192  -4.4120  -3.9705

          k = 0.1732-0.1000 0.0000 (  1517 PWs)   bands (ev):

   -19.3024  -7.2568  -5.7637  -4.9249

          k = 0.1732-0.1000-0.1230 (  1522 PWs)   bands (ev):

   -19.3024  -7.2569  -5.7639  -4.9250

          k = 0.2309-0.2000 0.0000 (  1512 PWs)   bands (ev):

   -18.3674  -7.9303  -6.1771  -6.1573

          k = 0.2309-0.2000-0.1230 (  1510 PWs)   bands (ev):

   -18.3674  -7.9302  -6.1771  -6.1575

          k = 0.2887-0.3000 0.0000 (  1514 PWs)   bands (ev):

   -16.9902 -10.4486  -7.1001  -4.6027

          k = 0.2887-0.3000-0.1230 (  1510 PWs)   bands (ev):

   -16.9902 -10.4485  -7.1000  -4.6028

          k =-0.2309 0.6000 0.0000 (  1508 PWs)   bands (ev):

   -15.2463 -12.8395  -7.5798  -2.9496

          k =-0.2309 0.6000-0.1230 (  1512 PWs)   bands (ev):

   -15.2463 -12.8395  -7.5798  -2.9497

          k =-0.1732 0.5000 0.0000 (  1508 PWs)   bands (ev):

   -15.2463 -12.8395  -7.5798  -2.9496

          k =-0.1732 0.5000-0.1230 (  1512 PWs)   bands (ev):

   -15.2463 -12.8395  -7.5798  -2.9497

          k =-0.1155 0.4000 0.0000 (  1514 PWs)   bands (ev):

   -16.9902 -10.4486  -7.1001  -4.6027

          k =-0.1155 0.4000-0.1230 (  1510 PWs)   bands (ev):

   -16.9902 -10.4485  -7.1000  -4.6028

          k =-0.0577 0.3000 0.0000 (  1512 PWs)   bands (ev):

   -18.3674  -7.9303  -6.1770  -6.1573

          k =-0.0577 0.3000-0.1230 (  1510 PWs)   bands (ev):

   -18.3674  -7.9302  -6.1771  -6.1575

          k = 0.0000 0.2000 0.0000 (  1517 PWs)   bands (ev):

   -19.3024  -7.2568  -5.7638  -4.9248

          k = 0.0000 0.2000-0.1230 (  1522 PWs)   bands (ev):

   -19.3024  -7.2569  -5.7640  -4.9249

          k = 0.2309 0.0000 0.0000 (  1522 PWs)   bands (ev):

   -19.0675  -6.9791  -6.5973  -4.9952

          k = 0.2309 0.0000-0.1230 (  1520 PWs)   bands (ev):

   -19.0675  -6.9792  -6.5974  -4.9950

          k = 0.2887-0.1000 0.0000 (  1512 PWs)   bands (ev):

   -18.3674  -7.9302  -6.1771  -6.1573

          k = 0.2887-0.1000-0.1230 (  1510 PWs)   bands (ev):

   -18.3674  -7.9301  -6.1772  -6.1575

          k = 0.3464-0.2000 0.0000 (  1515 PWs)   bands (ev):

   -17.2181  -9.4027  -7.9487  -4.8363

          k = 0.3464-0.2000-0.1230 (  1522 PWs)   bands (ev):

   -17.2181  -9.4028  -7.9489  -4.8364

          k =-0.1732 0.7000 0.0000 (  1500 PWs)   bands (ev):

   -15.6604 -11.4037  -9.0251  -3.1535

          k =-0.1732 0.7000-0.1230 (  1508 PWs)   bands (ev):

   -15.6603 -11.4039  -9.0252  -3.1534

          k =-0.1155 0.6000 0.0000 (  1502 PWs)   bands (ev):

   -14.1326 -13.1691  -9.3300  -1.9380

          k =-0.1155 0.6000-0.1230 (  1496 PWs)   bands (ev):

   -14.1326 -13.1690  -9.3300  -1.9381

          k =-0.0577 0.5000 0.0000 (  1500 PWs)   bands (ev):

   -15.6604 -11.4037  -9.0251  -3.1534

          k =-0.0577 0.5000-0.1230 (  1508 PWs)   bands (ev):

   -15.6603 -11.4039  -9.0251  -3.1534

          k = 0.0000 0.4000 0.0000 (  1515 PWs)   bands (ev):

   -17.2182  -9.4028  -7.9486  -4.8363

          k = 0.0000 0.4000-0.1230 (  1522 PWs)   bands (ev):

   -17.2182  -9.4028  -7.9488  -4.8364

          k = 0.3464 0.0000 0.0000 (  1514 PWs)   bands (ev):

   -17.9041  -9.2200  -5.9917  -5.6291

          k = 0.3464 0.0000-0.1230 (  1508 PWs)   bands (ev):

   -17.9041  -9.2199  -5.9918  -5.6292

          k = 0.4041-0.1000 0.0000 (  1514 PWs)   bands (ev):

   -16.9902 -10.4485  -7.1002  -4.6027

          k = 0.4041-0.1000-0.1230 (  1510 PWs)   bands (ev):

   -16.9901 -10.4485  -7.1001  -4.6028

          k =-0.1155 0.8000 0.0000 (  1500 PWs)   bands (ev):

   -15.6604 -11.4037  -9.0251  -3.1535

          k =-0.1155 0.8000-0.1230 (  1508 PWs)   bands (ev):

   -15.6603 -11.4039  -9.0252  -3.1535

          k =-0.0577 0.7000 0.0000 (  1497 PWs)   bands (ev):

   -14.0223 -12.3268 -10.6767  -1.4578

          k =-0.0577 0.7000-0.1230 (  1490 PWs)   bands (ev):

   -14.0223 -12.3267 -10.6765  -1.4579

          k =-0.0000 0.6000 0.0000 (  1497 PWs)   bands (ev):

   -14.0223 -12.3268 -10.6766  -1.4578

          k =-0.0000 0.6000-0.1230 (  1490 PWs)   bands (ev):

   -14.0223 -12.3268 -10.6765  -1.4579

          k = 0.4619 0.0000 0.0000 (  1512 PWs)   bands (ev):

   -16.3167 -11.8054  -6.6660  -3.9340

          k = 0.4619 0.0000-0.1230 (  1516 PWs)   bands (ev):

   -16.3166 -11.8054  -6.6658  -3.9342

          k =-0.0577 0.9000 0.0000 (  1508 PWs)   bands (ev):

   -15.2463 -12.8394  -7.5799  -2.9496

          k =-0.0577 0.9000-0.1230 (  1512 PWs)   bands (ev):

   -15.2463 -12.8395  -7.5799  -2.9498

          k = 0.0000 0.8000 0.0000 (  1502 PWs)   bands (ev):

   -14.1326 -13.1690  -9.3301  -1.9380

          k = 0.0000 0.8000-0.1230 (  1496 PWs)   bands (ev):

   -14.1326 -13.1689  -9.3301  -1.9381

          k =-0.5774 0.0000 0.0000 (  1508 PWs)   bands (ev):

   -14.7391 -13.7327  -6.9007  -2.8034

          k =-0.5774 0.0000-0.1230 (  1528 PWs)   bands (ev):

   -14.7390 -13.7327  -6.9012  -2.8037

     highest occupied level (ev):    -1.4578

     Writing output data file GraphPhon.save/

     Phonon calculation graphene                                                

     bravais-lattice index     =            0
     lattice parameter (alat)  =       4.6476  a.u.
     unit-cell volume          =     353.4961 (a.u.)^3
     number of atoms/cell      =            2
     number of atomic types    =            1
     kinetic-energy cut-off    =      40.0000  Ry
     charge density cut-off    =     160.0000  Ry
     convergence threshold     =      1.0E-14
     beta                      =       0.7000
     number of iterations used =            4
     Exchange-correlation      = PBE ( 1  4  3  4 0 0)


     celldm(1)=    8.04985  celldm(2)=    0.57735  celldm(3)=    2.34753
     celldm(4)=    0.00000  celldm(5)=    0.00000  celldm(6)=    0.00000

     crystal axes: (cart. coord. in units of alat)
               a(1) = (  0.8660  0.5000  0.0000 )  
               a(2) = (  0.8660 -0.5000  0.0000 )  
               a(3) = (  0.0000  0.0000  4.0660 )  

     reciprocal axes: (cart. coord. in units 2 pi/alat)
               b(1) = (  0.5774  1.0000 -0.0000 )  
               b(2) = (  0.5774 -1.0000 -0.0000 )  
               b(3) = ( -0.0000 -0.0000  0.2459 )  


     Atoms inside the unit cell: 

     Cartesian axes

     site n.  atom      mass           positions (alat units)
        1     C   12.0110   tau(    1) = (    0.00000    0.00000    0.00000  )
        2     C   12.0110   tau(    2) = (    0.57735    0.00000    0.00000  )

     Computing dynamical matrix for 
                    q = (   0.0000000   0.0000000  -0.1229701 )

      5 Sym.Ops. (with q -> -q+G )


     G cutoff =   87.5420  (   1014 G-vectors)     FFT grid: ( 20, 20, 80)
     number of k points=    62

     PseudoPot. # 1 for C  read from file:
     /q-e-qe-6.3/pseudo/C.pbe-n-rrkjus_psl.1.0.0.UPF
     MD5 check sum: 1fdd950c42eb37d8afe3dd2f8d12311e
     Pseudo is Ultrasoft + core correction, Zval =  4.0
     Generated using "atomic" code by A. Dal Corso v.6.3MaX
     Using radial grid of 1073 points,  4 beta functions with: 
                l(1) =   0
                l(2) =   0
                l(3) =   1
                l(4) =   1
     Q(r) pseudized with 0 coefficients 


     Mode symmetry, C_2v (mm2)  point group:


     Atomic displacements:
     There are   6 irreducible representations

     Representation     1      1 modes -A_1  D_1  S_1  To be done

     Representation     2      1 modes -A_1  D_1  S_1  To be done

     Representation     3      1 modes -B_1  D_3  S_3  To be done

     Representation     4      1 modes -B_1  D_3  S_3  To be done

     Representation     5      1 modes -B_2  D_4  S_4  To be done

     Representation     6      1 modes -B_2  D_4  S_4  To be done



     Alpha used in Ewald sum =   1.7000

     negative rho (up, down):  1.156E-03 0.000E+00
     PHONON       :    43.99s CPU     1m 7.32s WALL



     Representation #  1 mode #   1

     Self-consistent Calculation

      iter #   1 total cpu time :    67.6 secs   av.it.:   5.3
      thresh= 1.000E-02 alpha_mix =  0.700 |ddv_scf|^2 =  9.798E-07

      iter #   2 total cpu time :    68.0 secs   av.it.:   8.3
      thresh= 9.899E-05 alpha_mix =  0.700 |ddv_scf|^2 =  5.775E-08

      iter #   3 total cpu time :    68.5 secs   av.it.:   7.3
      thresh= 2.403E-05 alpha_mix =  0.700 |ddv_scf|^2 =  1.141E-09

      iter #   4 total cpu time :    69.0 secs   av.it.:   7.4
      thresh= 3.378E-06 alpha_mix =  0.700 |ddv_scf|^2 =  1.933E-12

      iter #   5 total cpu time :    69.6 secs   av.it.:   7.8
      thresh= 1.390E-07 alpha_mix =  0.700 |ddv_scf|^2 =  3.994E-14

      iter #   6 total cpu time :    70.1 secs   av.it.:   8.1
      thresh= 1.998E-08 alpha_mix =  0.700 |ddv_scf|^2 =  1.854E-15

     End of self-consistent calculation

     Convergence has been achieved 


     Representation #  2 mode #   2

     Self-consistent Calculation

      iter #   1 total cpu time :    70.6 secs   av.it.:   5.3
      thresh= 1.000E-02 alpha_mix =  0.700 |ddv_scf|^2 =  1.187E-06

      iter #   2 total cpu time :    71.2 secs   av.it.:   8.2
      thresh= 1.090E-04 alpha_mix =  0.700 |ddv_scf|^2 =  7.530E-08

      iter #   3 total cpu time :    71.6 secs   av.it.:   7.2
      thresh= 2.744E-05 alpha_mix =  0.700 |ddv_scf|^2 =  1.184E-09

      iter #   4 total cpu time :    72.0 secs   av.it.:   7.4
      thresh= 3.440E-06 alpha_mix =  0.700 |ddv_scf|^2 =  2.603E-12

      iter #   5 total cpu time :    72.5 secs   av.it.:   7.6
      thresh= 1.613E-07 alpha_mix =  0.700 |ddv_scf|^2 =  3.729E-14

      iter #   6 total cpu time :    73.0 secs   av.it.:   8.1
      thresh= 1.931E-08 alpha_mix =  0.700 |ddv_scf|^2 =  1.497E-15

     End of self-consistent calculation

     Convergence has been achieved 


     Representation #  3 mode #   3

     Self-consistent Calculation

      iter #   1 total cpu time :    73.4 secs   av.it.:   5.8
      thresh= 1.000E-02 alpha_mix =  0.700 |ddv_scf|^2 =  4.958E-04

      iter #   2 total cpu time :    73.9 secs   av.it.:   7.2
      thresh= 2.227E-03 alpha_mix =  0.700 |ddv_scf|^2 =  8.139E-04

      iter #   3 total cpu time :    74.3 secs   av.it.:   6.4
      thresh= 2.853E-03 alpha_mix =  0.700 |ddv_scf|^2 =  5.990E-07

      iter #   4 total cpu time :    74.7 secs   av.it.:   6.7
      thresh= 7.739E-05 alpha_mix =  0.700 |ddv_scf|^2 =  1.091E-09

      iter #   5 total cpu time :    75.1 secs   av.it.:   6.6
      thresh= 3.303E-06 alpha_mix =  0.700 |ddv_scf|^2 =  2.512E-10

      iter #   6 total cpu time :    75.5 secs   av.it.:   6.7
      thresh= 1.585E-06 alpha_mix =  0.700 |ddv_scf|^2 =  3.699E-13

      iter #   7 total cpu time :    76.0 secs   av.it.:   7.1
      thresh= 6.082E-08 alpha_mix =  0.700 |ddv_scf|^2 =  2.252E-15

     End of self-consistent calculation

     Convergence has been achieved 


     Representation #  4 mode #   4

     Self-consistent Calculation

      iter #   1 total cpu time :    76.4 secs   av.it.:   5.8
      thresh= 1.000E-02 alpha_mix =  0.700 |ddv_scf|^2 =  4.961E-04

      iter #   2 total cpu time :    76.9 secs   av.it.:   7.2
      thresh= 2.227E-03 alpha_mix =  0.700 |ddv_scf|^2 =  8.140E-04

      iter #   3 total cpu time :    77.4 secs   av.it.:   6.4
      thresh= 2.853E-03 alpha_mix =  0.700 |ddv_scf|^2 =  6.061E-07

      iter #   4 total cpu time :    77.9 secs   av.it.:   6.6
      thresh= 7.785E-05 alpha_mix =  0.700 |ddv_scf|^2 =  1.396E-09

      iter #   5 total cpu time :    78.3 secs   av.it.:   6.7
      thresh= 3.737E-06 alpha_mix =  0.700 |ddv_scf|^2 =  2.545E-10

      iter #   6 total cpu time :    78.8 secs   av.it.:   6.7
      thresh= 1.595E-06 alpha_mix =  0.700 |ddv_scf|^2 =  7.451E-13

      iter #   7 total cpu time :    79.3 secs   av.it.:   7.0
      thresh= 8.632E-08 alpha_mix =  0.700 |ddv_scf|^2 =  7.432E-16

     End of self-consistent calculation

     Convergence has been achieved 


     Representation #  5 mode #   5

     Self-consistent Calculation

      iter #   1 total cpu time :    79.7 secs   av.it.:   5.3
      thresh= 1.000E-02 alpha_mix =  0.700 |ddv_scf|^2 =  1.207E-06

      iter #   2 total cpu time :    80.2 secs   av.it.:   8.0
      thresh= 1.099E-04 alpha_mix =  0.700 |ddv_scf|^2 =  7.694E-08

      iter #   3 total cpu time :    80.7 secs   av.it.:   7.0
      thresh= 2.774E-05 alpha_mix =  0.700 |ddv_scf|^2 =  1.177E-09

      iter #   4 total cpu time :    81.2 secs   av.it.:   7.3
      thresh= 3.431E-06 alpha_mix =  0.700 |ddv_scf|^2 =  2.600E-12

      iter #   5 total cpu time :    81.6 secs   av.it.:   7.4
      thresh= 1.613E-07 alpha_mix =  0.700 |ddv_scf|^2 =  8.221E-15

     End of self-consistent calculation

     Convergence has been achieved 


     Representation #  6 mode #   6

     Self-consistent Calculation

      iter #   1 total cpu time :    82.1 secs   av.it.:   5.3
      thresh= 1.000E-02 alpha_mix =  0.700 |ddv_scf|^2 =  9.644E-07

      iter #   2 total cpu time :    82.5 secs   av.it.:   8.1
      thresh= 9.820E-05 alpha_mix =  0.700 |ddv_scf|^2 =  5.637E-08

      iter #   3 total cpu time :    83.1 secs   av.it.:   7.1
      thresh= 2.374E-05 alpha_mix =  0.700 |ddv_scf|^2 =  1.134E-09

      iter #   4 total cpu time :    83.6 secs   av.it.:   7.4
      thresh= 3.368E-06 alpha_mix =  0.700 |ddv_scf|^2 =  1.906E-12

      iter #   5 total cpu time :    84.2 secs   av.it.:   7.5
      thresh= 1.381E-07 alpha_mix =  0.700 |ddv_scf|^2 =  1.027E-14

      iter #   6 total cpu time :    84.8 secs   av.it.:   8.0
      thresh= 1.013E-08 alpha_mix =  0.700 |ddv_scf|^2 =  1.033E-16

     End of self-consistent calculation

     Convergence has been achieved 

     Number of q in the star =    1
     List of q in the star:
          1   0.000000000   0.000000000  -0.122970072

     Diagonalizing the dynamical matrix

     q = (    0.000000000   0.000000000  -0.122970072 ) 

 **************************************************************************
     freq (    1) =      -0.734097 [THz] =     -24.486855 [cm-1]
     freq (    2) =      -0.698753 [THz] =     -23.307902 [cm-1]
     freq (    3) =       4.214838 [THz] =     140.591857 [cm-1]
     freq (    4) =      26.535233 [THz] =     885.120096 [cm-1]
     freq (    5) =      47.460261 [THz] =    1583.103888 [cm-1]
     freq (    6) =      47.461045 [THz] =    1583.130040 [cm-1]
 **************************************************************************

     Mode symmetry, C_2v (mm2)  point group:

     freq (  1 -  1) =        -24.5  [cm-1]   --> B_2  D_4  S_4      
     freq (  2 -  2) =        -23.3  [cm-1]   --> A_1  D_1  S_1      
     freq (  3 -  3) =        140.6  [cm-1]   --> B_1  D_3  S_3      
     freq (  4 -  4) =        885.1  [cm-1]   --> B_1  D_3  S_3      
     freq (  5 -  5) =       1583.1  [cm-1]   --> A_1  D_1  S_1      
     freq (  6 -  6) =       1583.1  [cm-1]   --> B_2  D_4  S_4      

     Calculation of q =    0.1443378  -0.2500000   0.0000000

     Parallelization info
     --------------------
     sticks:   dense  smooth     PW     G-vecs:    dense   smooth      PW
     Min          20      20      7                 1010     1010     241
     Max          21      21      8                 1023     1023     260
     Sum         241     241     91                12161    12161    2957


     Title: 
     Phonon calculation graphene                                                


     bravais-lattice index     =            0
     lattice parameter (alat)  =       4.6476  a.u.
     unit-cell volume          =     353.4961 (a.u.)^3
     number of atoms/cell      =            2
     number of atomic types    =            1
     number of electrons       =         8.00
     number of Kohn-Sham states=            4
     kinetic-energy cutoff     =      40.0000  Ry
     charge density cutoff     =     160.0000  Ry
     Exchange-correlation      = PBE ( 1  4  3  4 0 0)

     celldm(1)=   8.049853  celldm(2)=   0.577351  celldm(3)=   2.347527
     celldm(4)=   0.000000  celldm(5)=   0.000000  celldm(6)=   0.000000

     crystal axes: (cart. coord. in units of alat)
               a(1) = (   0.866024   0.500000   0.000000 )  
               a(2) = (   0.866024  -0.500000   0.000000 )  
               a(3) = (   0.000000   0.000000   4.066030 )  

     reciprocal axes: (cart. coord. in units 2 pi/alat)
               b(1) = (  0.577351  1.000000 -0.000000 )  
               b(2) = (  0.577351 -1.000000 -0.000000 )  
               b(3) = ( -0.000000 -0.000000  0.245940 )  


     PseudoPot. # 1 for C  read from file:
     /q-e-qe-6.3/pseudo/C.pbe-n-rrkjus_psl.1.0.0.UPF
     MD5 check sum: 1fdd950c42eb37d8afe3dd2f8d12311e
     Pseudo is Ultrasoft + core correction, Zval =  4.0
     Generated using "atomic" code by A. Dal Corso v.6.3MaX
     Using radial grid of 1073 points,  4 beta functions with: 
                l(1) =   0
                l(2) =   0
                l(3) =   1
                l(4) =   1
     Q(r) pseudized with 0 coefficients 


     atomic species   valence    mass     pseudopotential
        C              4.00    12.01100     C ( 1.00)

      4 Sym. Ops. (no inversion) found



   Cartesian axes

     site n.     atom                  positions (alat units)
         1           C   tau(   1) = (   0.0000000   0.0000000   0.0000000  )
         2           C   tau(   2) = (   0.5773520   0.0000000   0.0000000  )

     number of k points=   200

     Number of k-points >= 100: set verbosity='high' to print them.

     Dense  grid:    12161 G-vectors     FFT dimensions: (  20,  20,  80)

     Estimated max dynamical RAM per process >       1.29 MB

     Estimated total dynamical RAM >      15.47 MB

     Check: negative/imaginary core charge=   -0.000019    0.000000

     The potential is recalculated from file :
     ./_ph0/GraphPhon.save/charge-density.dat


     negative rho (up, down):  1.156E-03 0.000E+00
     Starting wfcs are    8 atomic wfcs

     Band Structure Calculation
     Davidson diagonalization with overlap

     ethr =  1.25E-10,  avg # of iterations =  9.2

     total cpu time spent up to now is        5.5 secs

     End of band structure calculation

     Number of k-points >= 100: set verbosity='high' to print the bands.

     highest occupied level (ev):    -1.4578

     Writing output data file GraphPhon.save/

     Phonon calculation graphene                                                

     bravais-lattice index     =            0
     lattice parameter (alat)  =       4.6476  a.u.
     unit-cell volume          =     353.4961 (a.u.)^3
     number of atoms/cell      =            2
     number of atomic types    =            1
     kinetic-energy cut-off    =      40.0000  Ry
     charge density cut-off    =     160.0000  Ry
     convergence threshold     =      1.0E-14
     beta                      =       0.7000
     number of iterations used =            4
     Exchange-correlation      = PBE ( 1  4  3  4 0 0)


     celldm(1)=    8.04985  celldm(2)=    0.57735  celldm(3)=    2.34753
     celldm(4)=    0.00000  celldm(5)=    0.00000  celldm(6)=    0.00000

     crystal axes: (cart. coord. in units of alat)
               a(1) = (  0.8660  0.5000  0.0000 )  
               a(2) = (  0.8660 -0.5000  0.0000 )  
               a(3) = (  0.0000  0.0000  4.0660 )  

     reciprocal axes: (cart. coord. in units 2 pi/alat)
               b(1) = (  0.5774  1.0000 -0.0000 )  
               b(2) = (  0.5774 -1.0000 -0.0000 )  
               b(3) = ( -0.0000 -0.0000  0.2459 )  


     Atoms inside the unit cell: 

     Cartesian axes

     site n.  atom      mass           positions (alat units)
        1     C   12.0110   tau(    1) = (    0.00000    0.00000    0.00000  )
        2     C   12.0110   tau(    2) = (    0.57735    0.00000    0.00000  )

     Computing dynamical matrix for 
                    q = (   0.1443378  -0.2500000   0.0000000 )

      2 Sym.Ops. (no q -> -q+G )


     G cutoff =   87.5420  (   1014 G-vectors)     FFT grid: ( 20, 20, 80)
     number of k points=   200

     PseudoPot. # 1 for C  read from file:
     /q-e-qe-6.3/pseudo/C.pbe-n-rrkjus_psl.1.0.0.UPF
     MD5 check sum: 1fdd950c42eb37d8afe3dd2f8d12311e
     Pseudo is Ultrasoft + core correction, Zval =  4.0
     Generated using "atomic" code by A. Dal Corso v.6.3MaX
     Using radial grid of 1073 points,  4 beta functions with: 
                l(1) =   0
                l(2) =   0
                l(3) =   1
                l(4) =   1
     Q(r) pseudized with 0 coefficients 


     Mode symmetry, C_s (m)     point group:


     Atomic displacements:
     There are   6 irreducible representations

     Representation     1      1 modes -A'  To be done

     Representation     2      1 modes -A'  To be done

     Representation     3      1 modes -A'  To be done

     Representation     4      1 modes -A'  To be done

     Representation     5      1 modes -A''  To be done

     Representation     6      1 modes -A''  To be done



     Alpha used in Ewald sum =   1.7000

     negative rho (up, down):  1.156E-03 0.000E+00
     PHONON       :    57.85s CPU     1m28.29s WALL



     Representation #  1 mode #   1

     Self-consistent Calculation

      iter #   1 total cpu time :    89.1 secs   av.it.:   5.9
      thresh= 1.000E-02 alpha_mix =  0.700 |ddv_scf|^2 =  5.567E-05

      iter #   2 total cpu time :    90.1 secs   av.it.:   8.2
      thresh= 7.462E-04 alpha_mix =  0.700 |ddv_scf|^2 =  2.283E-04

      iter #   3 total cpu time :    91.4 secs   av.it.:   7.0
      thresh= 1.511E-03 alpha_mix =  0.700 |ddv_scf|^2 =  1.744E-07

      iter #   4 total cpu time :    92.7 secs   av.it.:   8.5
      thresh= 4.177E-05 alpha_mix =  0.700 |ddv_scf|^2 =  5.942E-08

      iter #   5 total cpu time :    93.9 secs   av.it.:   8.3
      thresh= 2.438E-05 alpha_mix =  0.700 |ddv_scf|^2 =  1.364E-09

      iter #   6 total cpu time :    95.4 secs   av.it.:   8.3
      thresh= 3.694E-06 alpha_mix =  0.700 |ddv_scf|^2 =  9.009E-12

      iter #   7 total cpu time :    96.9 secs   av.it.:   7.5
      thresh= 3.001E-07 alpha_mix =  0.700 |ddv_scf|^2 =  3.151E-13

      iter #   8 total cpu time :    98.4 secs   av.it.:   7.7
      thresh= 5.614E-08 alpha_mix =  0.700 |ddv_scf|^2 =  1.389E-13

      iter #   9 total cpu time :    99.9 secs   av.it.:   7.4
      thresh= 3.727E-08 alpha_mix =  0.700 |ddv_scf|^2 =  1.051E-13

      iter #  10 total cpu time :   101.4 secs   av.it.:   7.2
      thresh= 3.242E-08 alpha_mix =  0.700 |ddv_scf|^2 =  3.847E-16

     End of self-consistent calculation

     Convergence has been achieved 


     Representation #  2 mode #   2

     Self-consistent Calculation

      iter #   1 total cpu time :   102.7 secs   av.it.:   5.8
      thresh= 1.000E-02 alpha_mix =  0.700 |ddv_scf|^2 =  3.977E-05

      iter #   2 total cpu time :   104.3 secs   av.it.:   8.2
      thresh= 6.306E-04 alpha_mix =  0.700 |ddv_scf|^2 =  1.613E-04

      iter #   3 total cpu time :   105.8 secs   av.it.:   7.0
      thresh= 1.270E-03 alpha_mix =  0.700 |ddv_scf|^2 =  1.530E-07

      iter #   4 total cpu time :   107.6 secs   av.it.:   8.4
      thresh= 3.911E-05 alpha_mix =  0.700 |ddv_scf|^2 =  4.372E-08

      iter #   5 total cpu time :   109.3 secs   av.it.:   8.3
      thresh= 2.091E-05 alpha_mix =  0.700 |ddv_scf|^2 =  1.263E-09

      iter #   6 total cpu time :   111.0 secs   av.it.:   8.3
      thresh= 3.553E-06 alpha_mix =  0.700 |ddv_scf|^2 =  6.163E-12

      iter #   7 total cpu time :   112.6 secs   av.it.:   7.6
      thresh= 2.482E-07 alpha_mix =  0.700 |ddv_scf|^2 =  2.423E-13

      iter #   8 total cpu time :   114.2 secs   av.it.:   7.8
      thresh= 4.923E-08 alpha_mix =  0.700 |ddv_scf|^2 =  1.288E-13

      iter #   9 total cpu time :   115.5 secs   av.it.:   7.4
      thresh= 3.589E-08 alpha_mix =  0.700 |ddv_scf|^2 =  8.838E-14

      iter #  10 total cpu time :   116.9 secs   av.it.:   7.2
      thresh= 2.973E-08 alpha_mix =  0.700 |ddv_scf|^2 =  3.979E-16

     End of self-consistent calculation

     Convergence has been achieved 


     Representation #  3 mode #   3

     Self-consistent Calculation

      iter #   1 total cpu time :   118.2 secs   av.it.:   5.8
      thresh= 1.000E-02 alpha_mix =  0.700 |ddv_scf|^2 =  4.784E-05

      iter #   2 total cpu time :   119.8 secs   av.it.:   8.2
      thresh= 6.916E-04 alpha_mix =  0.700 |ddv_scf|^2 =  1.948E-04

      iter #   3 total cpu time :   121.1 secs   av.it.:   7.0
      thresh= 1.396E-03 alpha_mix =  0.700 |ddv_scf|^2 =  1.675E-07

      iter #   4 total cpu time :   122.8 secs   av.it.:   8.4
      thresh= 4.093E-05 alpha_mix =  0.700 |ddv_scf|^2 =  5.432E-08

      iter #   5 total cpu time :   123.8 secs   av.it.:   8.3
      thresh= 2.331E-05 alpha_mix =  0.700 |ddv_scf|^2 =  1.314E-09

      iter #   6 total cpu time :   125.3 secs   av.it.:   8.3
      thresh= 3.625E-06 alpha_mix =  0.700 |ddv_scf|^2 =  8.182E-12

      iter #   7 total cpu time :   126.8 secs   av.it.:   7.6
      thresh= 2.860E-07 alpha_mix =  0.700 |ddv_scf|^2 =  3.021E-13

      iter #   8 total cpu time :   127.9 secs   av.it.:   7.8
      thresh= 5.497E-08 alpha_mix =  0.700 |ddv_scf|^2 =  1.750E-13

      iter #   9 total cpu time :   129.3 secs   av.it.:   7.4
      thresh= 4.183E-08 alpha_mix =  0.700 |ddv_scf|^2 =  9.855E-14

      iter #  10 total cpu time :   130.7 secs   av.it.:   7.2
      thresh= 3.139E-08 alpha_mix =  0.700 |ddv_scf|^2 =  4.849E-16

     End of self-consistent calculation

     Convergence has been achieved 


     Representation #  4 mode #   4

     Self-consistent Calculation

      iter #   1 total cpu time :   131.7 secs   av.it.:   5.9
      thresh= 1.000E-02 alpha_mix =  0.700 |ddv_scf|^2 =  6.335E-05

      iter #   2 total cpu time :   133.1 secs   av.it.:   8.2
      thresh= 7.959E-04 alpha_mix =  0.700 |ddv_scf|^2 =  2.616E-04

      iter #   3 total cpu time :   134.3 secs   av.it.:   7.0
      thresh= 1.617E-03 alpha_mix =  0.700 |ddv_scf|^2 =  1.798E-07

      iter #   4 total cpu time :   135.6 secs   av.it.:   8.4
      thresh= 4.240E-05 alpha_mix =  0.700 |ddv_scf|^2 =  5.593E-08

      iter #   5 total cpu time :   137.1 secs   av.it.:   8.3
      thresh= 2.365E-05 alpha_mix =  0.700 |ddv_scf|^2 =  1.385E-09

      iter #   6 total cpu time :   138.8 secs   av.it.:   8.3
      thresh= 3.721E-06 alpha_mix =  0.700 |ddv_scf|^2 =  8.305E-12

      iter #   7 total cpu time :   140.3 secs   av.it.:   7.5
      thresh= 2.882E-07 alpha_mix =  0.700 |ddv_scf|^2 =  2.553E-13

      iter #   8 total cpu time :   141.8 secs   av.it.:   7.8
      thresh= 5.052E-08 alpha_mix =  0.700 |ddv_scf|^2 =  6.787E-14

      iter #   9 total cpu time :   143.3 secs   av.it.:   7.6
      thresh= 2.605E-08 alpha_mix =  0.700 |ddv_scf|^2 =  9.032E-14

      iter #  10 total cpu time :   144.6 secs   av.it.:   7.1
      thresh= 3.005E-08 alpha_mix =  0.700 |ddv_scf|^2 =  1.786E-16

     End of self-consistent calculation

     Convergence has been achieved 


     Representation #  5 mode #   5

     Self-consistent Calculation

      iter #   1 total cpu time :   145.6 secs   av.it.:   5.9
      thresh= 1.000E-02 alpha_mix =  0.700 |ddv_scf|^2 =  1.114E-05

      iter #   2 total cpu time :   146.7 secs   av.it.:   8.2
      thresh= 3.338E-04 alpha_mix =  0.700 |ddv_scf|^2 =  1.491E-06

      iter #   3 total cpu time :   148.0 secs   av.it.:   8.0
      thresh= 1.221E-04 alpha_mix =  0.700 |ddv_scf|^2 =  5.740E-08

      iter #   4 total cpu time :   149.0 secs   av.it.:   7.3
      thresh= 2.396E-05 alpha_mix =  0.700 |ddv_scf|^2 =  3.892E-11

      iter #   5 total cpu time :   150.4 secs   av.it.:   7.8
      thresh= 6.239E-07 alpha_mix =  0.700 |ddv_scf|^2 =  2.302E-12

      iter #   6 total cpu time :   151.7 secs   av.it.:   7.0
      thresh= 1.517E-07 alpha_mix =  0.700 |ddv_scf|^2 =  2.573E-15

     End of self-consistent calculation

     Convergence has been achieved 


     Representation #  6 mode #   6

     Self-consistent Calculation

      iter #   1 total cpu time :   153.0 secs   av.it.:   5.9
      thresh= 1.000E-02 alpha_mix =  0.700 |ddv_scf|^2 =  1.086E-05

      iter #   2 total cpu time :   154.5 secs   av.it.:   8.2
      thresh= 3.296E-04 alpha_mix =  0.700 |ddv_scf|^2 =  1.449E-06

      iter #   3 total cpu time :   155.9 secs   av.it.:   8.0
      thresh= 1.204E-04 alpha_mix =  0.700 |ddv_scf|^2 =  4.970E-08

      iter #   4 total cpu time :   157.7 secs   av.it.:   7.3
      thresh= 2.229E-05 alpha_mix =  0.700 |ddv_scf|^2 =  3.962E-11

      iter #   5 total cpu time :   159.3 secs   av.it.:   7.9
      thresh= 6.294E-07 alpha_mix =  0.700 |ddv_scf|^2 =  2.770E-12

      iter #   6 total cpu time :   161.1 secs   av.it.:   7.0
      thresh= 1.664E-07 alpha_mix =  0.700 |ddv_scf|^2 =  2.871E-15

     End of self-consistent calculation

     Convergence has been achieved 

     Number of q in the star =    2
     List of q in the star:
          1   0.144337801  -0.250000000   0.000000000
          2   0.144337801   0.250000000   0.000000000
     In addition there is the -q list: 
          1  -0.144337801   0.250000000  -0.000000000
          2  -0.144337801  -0.250000000  -0.000000000

     Diagonalizing the dynamical matrix

     q = (    0.144337801  -0.250000000   0.000000000 ) 

 **************************************************************************
     freq (    1) =       6.010724 [THz] =     200.496180 [cm-1]
     freq (    2) =      13.807015 [THz] =     460.552436 [cm-1]
     freq (    3) =      23.668270 [THz] =     789.488500 [cm-1]
     freq (    4) =      24.841080 [THz] =     828.609231 [cm-1]
     freq (    5) =      44.353424 [THz] =    1479.470989 [cm-1]
     freq (    6) =      47.837495 [THz] =    1595.687074 [cm-1]
 **************************************************************************

     Mode symmetry, C_s (m)     point group:

     freq (  1 -  1) =        200.5  [cm-1]   --> A''                
     freq (  2 -  2) =        460.6  [cm-1]   --> A'                 
     freq (  3 -  3) =        789.5  [cm-1]   --> A'                 
     freq (  4 -  4) =        828.6  [cm-1]   --> A''                
     freq (  5 -  5) =       1479.5  [cm-1]   --> A'                 
     freq (  6 -  6) =       1595.7  [cm-1]   --> A'                 

     Calculation of q =    0.1443378  -0.2500000   0.0614850

     Parallelization info
     --------------------
     sticks:   dense  smooth     PW     G-vecs:    dense   smooth      PW
     Min          20      20      7                 1010     1010     241
     Max          21      21      8                 1023     1023     260
     Sum         241     241     91                12161    12161    2957


     Title: 
     Phonon calculation graphene                                                


     bravais-lattice index     =            0
     lattice parameter (alat)  =       4.6476  a.u.
     unit-cell volume          =     353.4961 (a.u.)^3
     number of atoms/cell      =            2
     number of atomic types    =            1
     number of electrons       =         8.00
     number of Kohn-Sham states=            4
     kinetic-energy cutoff     =      40.0000  Ry
     charge density cutoff     =     160.0000  Ry
     Exchange-correlation      = PBE ( 1  4  3  4 0 0)

     celldm(1)=   8.049853  celldm(2)=   0.577351  celldm(3)=   2.347527
     celldm(4)=   0.000000  celldm(5)=   0.000000  celldm(6)=   0.000000

     crystal axes: (cart. coord. in units of alat)
               a(1) = (   0.866024   0.500000   0.000000 )  
               a(2) = (   0.866024  -0.500000   0.000000 )  
               a(3) = (   0.000000   0.000000   4.066030 )  

     reciprocal axes: (cart. coord. in units 2 pi/alat)
               b(1) = (  0.577351  1.000000 -0.000000 )  
               b(2) = (  0.577351 -1.000000 -0.000000 )  
               b(3) = ( -0.000000 -0.000000  0.245940 )  


     PseudoPot. # 1 for C  read from file:
     /q-e-qe-6.3/pseudo/C.pbe-n-rrkjus_psl.1.0.0.UPF
     MD5 check sum: 1fdd950c42eb37d8afe3dd2f8d12311e
     Pseudo is Ultrasoft + core correction, Zval =  4.0
     Generated using "atomic" code by A. Dal Corso v.6.3MaX
     Using radial grid of 1073 points,  4 beta functions with: 
                l(1) =   0
                l(2) =   0
                l(3) =   1
                l(4) =   1
     Q(r) pseudized with 0 coefficients 


     atomic species   valence    mass     pseudopotential
        C              4.00    12.01100     C ( 1.00)

      4 Sym. Ops. (no inversion) found



   Cartesian axes

     site n.     atom                  positions (alat units)
         1           C   tau(   1) = (   0.0000000   0.0000000   0.0000000  )
         2           C   tau(   2) = (   0.5773520   0.0000000   0.0000000  )

     number of k points=   200

     Number of k-points >= 100: set verbosity='high' to print them.

     Dense  grid:    12161 G-vectors     FFT dimensions: (  20,  20,  80)

     Estimated max dynamical RAM per process >       1.29 MB

     Estimated total dynamical RAM >      15.47 MB

     Check: negative/imaginary core charge=   -0.000019    0.000000

     The potential is recalculated from file :
     ./_ph0/GraphPhon.save/charge-density.dat


     negative rho (up, down):  1.156E-03 0.000E+00
     Starting wfcs are    8 atomic wfcs

     Band Structure Calculation
     Davidson diagonalization with overlap

     ethr =  1.25E-10,  avg # of iterations =  9.2

     total cpu time spent up to now is        9.7 secs

     End of band structure calculation

     Number of k-points >= 100: set verbosity='high' to print the bands.

     highest occupied level (ev):    -1.4578

     Writing output data file GraphPhon.save/

     Phonon calculation graphene                                                

     bravais-lattice index     =            0
     lattice parameter (alat)  =       4.6476  a.u.
     unit-cell volume          =     353.4961 (a.u.)^3
     number of atoms/cell      =            2
     number of atomic types    =            1
     kinetic-energy cut-off    =      40.0000  Ry
     charge density cut-off    =     160.0000  Ry
     convergence threshold     =      1.0E-14
     beta                      =       0.7000
     number of iterations used =            4
     Exchange-correlation      = PBE ( 1  4  3  4 0 0)


     celldm(1)=    8.04985  celldm(2)=    0.57735  celldm(3)=    2.34753
     celldm(4)=    0.00000  celldm(5)=    0.00000  celldm(6)=    0.00000

     crystal axes: (cart. coord. in units of alat)
               a(1) = (  0.8660  0.5000  0.0000 )  
               a(2) = (  0.8660 -0.5000  0.0000 )  
               a(3) = (  0.0000  0.0000  4.0660 )  

     reciprocal axes: (cart. coord. in units 2 pi/alat)
               b(1) = (  0.5774  1.0000 -0.0000 )  
               b(2) = (  0.5774 -1.0000 -0.0000 )  
               b(3) = ( -0.0000 -0.0000  0.2459 )  


     Atoms inside the unit cell: 

     Cartesian axes

     site n.  atom      mass           positions (alat units)
        1     C   12.0110   tau(    1) = (    0.00000    0.00000    0.00000  )
        2     C   12.0110   tau(    2) = (    0.57735    0.00000    0.00000  )

     Computing dynamical matrix for 
                    q = (   0.1443378  -0.2500000   0.0614850 )

     No symmetry!

     G cutoff =   87.5420  (   1014 G-vectors)     FFT grid: ( 20, 20, 80)
     number of k points=   200

     PseudoPot. # 1 for C  read from file:
     /q-e-qe-6.3/pseudo/C.pbe-n-rrkjus_psl.1.0.0.UPF
     MD5 check sum: 1fdd950c42eb37d8afe3dd2f8d12311e
     Pseudo is Ultrasoft + core correction, Zval =  4.0
     Generated using "atomic" code by A. Dal Corso v.6.3MaX
     Using radial grid of 1073 points,  4 beta functions with: 
                l(1) =   0
                l(2) =   0
                l(3) =   1
                l(4) =   1
     Q(r) pseudized with 0 coefficients 


     Mode symmetry, C_1 (1)     point group:


     Atomic displacements:
     There are   6 irreducible representations

     Representation     1      1 modes -A  To be done

     Representation     2      1 modes -A  To be done

     Representation     3      1 modes -A  To be done

     Representation     4      1 modes -A  To be done

     Representation     5      1 modes -A  To be done

     Representation     6      1 modes -A  To be done



     Alpha used in Ewald sum =   1.7000

     negative rho (up, down):  1.156E-03 0.000E+00
     PHONON       :  1m48.86s CPU     2m46.77s WALL



     Representation #  1 mode #   1

     Self-consistent Calculation

      iter #   1 total cpu time :   169.1 secs   av.it.:   6.1
      thresh= 1.000E-02 alpha_mix =  0.700 |ddv_scf|^2 =  5.410E-05

      iter #   2 total cpu time :   171.1 secs   av.it.:   8.8
      thresh= 7.355E-04 alpha_mix =  0.700 |ddv_scf|^2 =  2.195E-04

      iter #   3 total cpu time :   172.6 secs   av.it.:   7.2
      thresh= 1.482E-03 alpha_mix =  0.700 |ddv_scf|^2 =  1.893E-07

      iter #   4 total cpu time :   174.6 secs   av.it.:   9.3
      thresh= 4.351E-05 alpha_mix =  0.700 |ddv_scf|^2 =  5.643E-08

      iter #   5 total cpu time :   176.0 secs   av.it.:   9.0
      thresh= 2.375E-05 alpha_mix =  0.700 |ddv_scf|^2 =  1.995E-09

      iter #   6 total cpu time :   177.7 secs   av.it.:   9.2
      thresh= 4.466E-06 alpha_mix =  0.700 |ddv_scf|^2 =  2.792E-11

      iter #   7 total cpu time :   179.4 secs   av.it.:   9.1
      thresh= 5.284E-07 alpha_mix =  0.700 |ddv_scf|^2 =  1.230E-12

      iter #   8 total cpu time :   181.0 secs   av.it.:   8.8
      thresh= 1.109E-07 alpha_mix =  0.700 |ddv_scf|^2 =  3.661E-13

      iter #   9 total cpu time :   182.6 secs   av.it.:   8.1
      thresh= 6.051E-08 alpha_mix =  0.700 |ddv_scf|^2 =  1.145E-13

      iter #  10 total cpu time :   184.1 secs   av.it.:   8.1
      thresh= 3.384E-08 alpha_mix =  0.700 |ddv_scf|^2 =  7.750E-14

      iter #  11 total cpu time :   185.3 secs   av.it.:   8.0
      thresh= 2.784E-08 alpha_mix =  0.700 |ddv_scf|^2 =  1.076E-15

     End of self-consistent calculation

     Convergence has been achieved 


     Representation #  2 mode #   2

     Self-consistent Calculation

      iter #   1 total cpu time :   186.6 secs   av.it.:   6.0
      thresh= 1.000E-02 alpha_mix =  0.700 |ddv_scf|^2 =  1.161E-05

      iter #   2 total cpu time :   188.1 secs   av.it.:   9.0
      thresh= 3.407E-04 alpha_mix =  0.700 |ddv_scf|^2 =  2.659E-06

      iter #   3 total cpu time :   189.9 secs   av.it.:   8.9
      thresh= 1.631E-04 alpha_mix =  0.700 |ddv_scf|^2 =  1.632E-06

      iter #   4 total cpu time :   191.3 secs   av.it.:   8.0
      thresh= 1.278E-04 alpha_mix =  0.700 |ddv_scf|^2 =  1.377E-07

      iter #   5 total cpu time :   192.8 secs   av.it.:   8.1
      thresh= 3.711E-05 alpha_mix =  0.700 |ddv_scf|^2 =  8.982E-11

      iter #   6 total cpu time :   194.7 secs   av.it.:   9.4
      thresh= 9.478E-07 alpha_mix =  0.700 |ddv_scf|^2 =  3.228E-11

      iter #   7 total cpu time :   196.2 secs   av.it.:   8.9
      thresh= 5.681E-07 alpha_mix =  0.700 |ddv_scf|^2 =  8.782E-13

      iter #   8 total cpu time :   198.1 secs   av.it.:   8.9
      thresh= 9.371E-08 alpha_mix =  0.700 |ddv_scf|^2 =  1.004E-14

      iter #   9 total cpu time :   199.8 secs   av.it.:   9.2
      thresh= 1.002E-08 alpha_mix =  0.700 |ddv_scf|^2 =  7.313E-15

     End of self-consistent calculation

     Convergence has been achieved 


     Representation #  3 mode #   3

     Self-consistent Calculation

      iter #   1 total cpu time :   201.3 secs   av.it.:   6.1
      thresh= 1.000E-02 alpha_mix =  0.700 |ddv_scf|^2 =  1.178E-05

      iter #   2 total cpu time :   202.8 secs   av.it.:   9.1
      thresh= 3.431E-04 alpha_mix =  0.700 |ddv_scf|^2 =  5.213E-06

      iter #   3 total cpu time :   204.6 secs   av.it.:   8.9
      thresh= 2.283E-04 alpha_mix =  0.700 |ddv_scf|^2 =  3.274E-06

      iter #   4 total cpu time :   206.4 secs   av.it.:   8.0
      thresh= 1.809E-04 alpha_mix =  0.700 |ddv_scf|^2 =  5.718E-08

      iter #   5 total cpu time :   208.0 secs   av.it.:   8.5
      thresh= 2.391E-05 alpha_mix =  0.700 |ddv_scf|^2 =  2.745E-10

      iter #   6 total cpu time :   209.6 secs   av.it.:   9.1
      thresh= 1.657E-06 alpha_mix =  0.700 |ddv_scf|^2 =  3.582E-11

      iter #   7 total cpu time :   210.9 secs   av.it.:   9.0
      thresh= 5.985E-07 alpha_mix =  0.700 |ddv_scf|^2 =  9.238E-13

      iter #   8 total cpu time :   212.1 secs   av.it.:   8.8
      thresh= 9.611E-08 alpha_mix =  0.700 |ddv_scf|^2 =  3.336E-14

      iter #   9 total cpu time :   213.4 secs   av.it.:   9.1
      thresh= 1.827E-08 alpha_mix =  0.700 |ddv_scf|^2 =  4.186E-14

      iter #  10 total cpu time :   214.9 secs   av.it.:   7.9
      thresh= 2.046E-08 alpha_mix =  0.700 |ddv_scf|^2 =  2.597E-15

     End of self-consistent calculation

     Convergence has been achieved 


[...]

   -16.9902 -10.4486  -7.1001  -4.6027

          k =-0.6928 0.4000-0.1230 (  1496 PWs)   bands (ev):

   -14.1326 -13.1690  -9.3300  -1.9381

          k =-0.0577 0.3000 0.0000 (  1512 PWs)   bands (ev):

   -18.3674  -7.9303  -6.1770  -6.1573

          k =-0.6351 0.3000-0.1230 (  1490 PWs)   bands (ev):

   -14.0223 -12.3267 -10.6765  -1.4579

          k = 0.0000 0.2000 0.0000 (  1517 PWs)   bands (ev):

   -19.3024  -7.2568  -5.7638  -4.9248

          k =-0.5774 0.2000-0.1230 (  1496 PWs)   bands (ev):

   -14.1326 -13.1689  -9.3301  -1.9381

          k = 0.2309 0.0000 0.0000 (  1522 PWs)   bands (ev):

   -19.0675  -6.9791  -6.5973  -4.9952

          k =-0.3464 0.0000-0.1230 (  1508 PWs)   bands (ev):

   -17.9041  -9.2199  -5.9918  -5.6292

          k = 0.2887-0.1000 0.0000 (  1512 PWs)   bands (ev):

   -18.3674  -7.9302  -6.1771  -6.1573

          k =-0.2887-0.1000-0.1230 (  1510 PWs)   bands (ev):

   -18.3674  -7.9301  -6.1772  -6.1575

          k = 0.3464-0.2000 0.0000 (  1515 PWs)   bands (ev):

   -17.2181  -9.4027  -7.9487  -4.8363

          k =-0.2309-0.2000-0.1230 (  1510 PWs)   bands (ev):

   -18.3674  -7.9302  -6.1771  -6.1575

          k =-0.1732 0.7000 0.0000 (  1500 PWs)   bands (ev):

   -15.6604 -11.4037  -9.0251  -3.1535

          k =-0.7506 0.7000-0.1230 (  1508 PWs)   bands (ev):

   -17.9041  -9.2200  -5.9917  -5.6292

          k =-0.1155 0.6000 0.0000 (  1502 PWs)   bands (ev):

   -14.1326 -13.1691  -9.3300  -1.9380

          k =-0.6928 0.6000-0.1230 (  1510 PWs)   bands (ev):

   -16.9902 -10.4485  -7.1000  -4.6028

          k =-0.0577 0.5000 0.0000 (  1500 PWs)   bands (ev):

   -15.6604 -11.4037  -9.0251  -3.1534

          k =-0.6351 0.5000-0.1230 (  1508 PWs)   bands (ev):

   -15.6603 -11.4039  -9.0251  -3.1534

          k = 0.0000 0.4000 0.0000 (  1515 PWs)   bands (ev):

   -17.2182  -9.4028  -7.9486  -4.8363

          k =-0.5774 0.4000-0.1230 (  1490 PWs)   bands (ev):

   -14.0223 -12.3268 -10.6765  -1.4579

          k = 0.3464 0.0000 0.0000 (  1514 PWs)   bands (ev):

   -17.9041  -9.2200  -5.9917  -5.6291

          k =-0.2309 0.0000-0.1230 (  1520 PWs)   bands (ev):

   -19.0675  -6.9792  -6.5974  -4.9950

          k = 0.4041-0.1000 0.0000 (  1514 PWs)   bands (ev):

   -16.9902 -10.4485  -7.1002  -4.6027

          k =-0.1732-0.1000-0.1230 (  1522 PWs)   bands (ev):

   -19.3024  -7.2569  -5.7639  -4.9250

          k =-0.1155 0.8000 0.0000 (  1500 PWs)   bands (ev):

   -15.6604 -11.4037  -9.0251  -3.1535

          k =-0.6928 0.8000-0.1230 (  1520 PWs)   bands (ev):

   -19.0675  -6.9792  -6.5975  -4.9949

          k =-0.0577 0.7000 0.0000 (  1497 PWs)   bands (ev):

   -14.0223 -12.3268 -10.6767  -1.4578

          k =-0.6351 0.7000-0.1230 (  1510 PWs)   bands (ev):

   -18.3674  -7.9302  -6.1771  -6.1575

          k =-0.0000 0.6000 0.0000 (  1497 PWs)   bands (ev):

   -14.0223 -12.3268 -10.6766  -1.4578

          k =-0.5774 0.6000-0.1230 (  1522 PWs)   bands (ev):

   -17.2182  -9.4028  -7.9488  -4.8364

          k = 0.4619 0.0000 0.0000 (  1512 PWs)   bands (ev):

   -16.3167 -11.8054  -6.6660  -3.9340

          k =-0.1155 0.0000-0.1230 (  1510 PWs)   bands (ev):

   -19.7739  -7.8192  -4.4120  -3.9705

          k =-0.0577 0.9000 0.0000 (  1508 PWs)   bands (ev):

   -15.2463 -12.8394  -7.5799  -2.9496

          k =-0.6351 0.9000-0.1230 (  1510 PWs)   bands (ev):

   -19.7739  -7.8192  -4.4122  -3.9704

          k = 0.0000 0.8000 0.0000 (  1502 PWs)   bands (ev):

   -14.1326 -13.1690  -9.3301  -1.9380

          k =-0.5774 0.8000-0.1230 (  1522 PWs)   bands (ev):

   -19.3024  -7.2569  -5.7640  -4.9249

          k =-0.5774 0.0000 0.0000 (  1508 PWs)   bands (ev):

   -14.7391 -13.7327  -6.9007  -2.8034

          k =-1.1547 0.0000-0.1230 (  1526 PWs)   bands (ev):

   -20.0107  -8.1030  -3.4936  -3.4934

     highest occupied level (ev):    -1.4578

     Writing output data file GraphPhon.save/

     Phonon calculation graphene                                                

     bravais-lattice index     =            0
     lattice parameter (alat)  =       4.6476  a.u.
     unit-cell volume          =     353.4961 (a.u.)^3
     number of atoms/cell      =            2
     number of atomic types    =            1
     kinetic-energy cut-off    =      40.0000  Ry
     charge density cut-off    =     160.0000  Ry
     convergence threshold     =      1.0E-14
     beta                      =       0.7000
     number of iterations used =            4
     Exchange-correlation      = PBE ( 1  4  3  4 0 0)


     celldm(1)=    8.04985  celldm(2)=    0.57735  celldm(3)=    2.34753
     celldm(4)=    0.00000  celldm(5)=    0.00000  celldm(6)=    0.00000

     crystal axes: (cart. coord. in units of alat)
               a(1) = (  0.8660  0.5000  0.0000 )  
               a(2) = (  0.8660 -0.5000  0.0000 )  
               a(3) = (  0.0000  0.0000  4.0660 )  

     reciprocal axes: (cart. coord. in units 2 pi/alat)
               b(1) = (  0.5774  1.0000 -0.0000 )  
               b(2) = (  0.5774 -1.0000 -0.0000 )  
               b(3) = ( -0.0000 -0.0000  0.2459 )  


     Atoms inside the unit cell: 

     Cartesian axes

     site n.  atom      mass           positions (alat units)
        1     C   12.0110   tau(    1) = (    0.00000    0.00000    0.00000  )
        2     C   12.0110   tau(    2) = (    0.57735    0.00000    0.00000  )

     Computing dynamical matrix for 
                    q = (  -0.5773512   0.0000000  -0.1229701 )

      5 Sym.Ops. (with q -> -q+G )


     G cutoff =   87.5420  (   1014 G-vectors)     FFT grid: ( 20, 20, 80)
     number of k points=    62

     PseudoPot. # 1 for C  read from file:
     /q-e-qe-6.3/pseudo/C.pbe-n-rrkjus_psl.1.0.0.UPF
     MD5 check sum: 1fdd950c42eb37d8afe3dd2f8d12311e
     Pseudo is Ultrasoft + core correction, Zval =  4.0
     Generated using "atomic" code by A. Dal Corso v.6.3MaX
     Using radial grid of 1073 points,  4 beta functions with: 
                l(1) =   0
                l(2) =   0
                l(3) =   1
                l(4) =   1
     Q(r) pseudized with 0 coefficients 


     Mode symmetry, C_2v (mm2)  point group:


     Atomic displacements:
     There are   6 irreducible representations

     Representation     1      1 modes -A_1  D_1  S_1  To be done

     Representation     2      1 modes -A_1  D_1  S_1  To be done

     Representation     3      1 modes -B_1  D_3  S_3  To be done

     Representation     4      1 modes -B_1  D_3  S_3  To be done

     Representation     5      1 modes -B_2  D_4  S_4  To be done

     Representation     6      1 modes -B_2  D_4  S_4  To be done



     Alpha used in Ewald sum =   1.7000

     negative rho (up, down):  1.156E-03 0.000E+00
     PHONON       : 12m38.25s CPU    19m23.40s WALL



     Representation #  1 mode #   1

     Self-consistent Calculation

      iter #   1 total cpu time :  1163.7 secs   av.it.:   6.1
      thresh= 1.000E-02 alpha_mix =  0.700 |ddv_scf|^2 =  2.840E-05

      iter #   2 total cpu time :  1164.3 secs   av.it.:   8.6
      thresh= 5.329E-04 alpha_mix =  0.700 |ddv_scf|^2 =  2.268E-05

      iter #   3 total cpu time :  1164.7 secs   av.it.:   8.4
      thresh= 4.762E-04 alpha_mix =  0.700 |ddv_scf|^2 =  8.546E-07

      iter #   4 total cpu time :  1165.4 secs   av.it.:   8.2
      thresh= 9.244E-05 alpha_mix =  0.700 |ddv_scf|^2 =  1.692E-07

      iter #   5 total cpu time :  1166.0 secs   av.it.:   8.2
      thresh= 4.113E-05 alpha_mix =  0.700 |ddv_scf|^2 =  4.180E-09

      iter #   6 total cpu time :  1166.6 secs   av.it.:   8.3
      thresh= 6.465E-06 alpha_mix =  0.700 |ddv_scf|^2 =  2.414E-12

      iter #   7 total cpu time :  1167.1 secs   av.it.:   8.1
      thresh= 1.554E-07 alpha_mix =  0.700 |ddv_scf|^2 =  1.535E-13

      iter #   8 total cpu time :  1167.7 secs   av.it.:   8.3
      thresh= 3.918E-08 alpha_mix =  0.700 |ddv_scf|^2 =  6.311E-16

     End of self-consistent calculation

     Convergence has been achieved 


     Representation #  2 mode #   2

     Self-consistent Calculation

      iter #   1 total cpu time :  1168.2 secs   av.it.:   6.1
      thresh= 1.000E-02 alpha_mix =  0.700 |ddv_scf|^2 =  2.699E-05

      iter #   2 total cpu time :  1168.7 secs   av.it.:   8.6
      thresh= 5.195E-04 alpha_mix =  0.700 |ddv_scf|^2 =  2.257E-05

      iter #   3 total cpu time :  1169.3 secs   av.it.:   8.4
      thresh= 4.750E-04 alpha_mix =  0.700 |ddv_scf|^2 =  7.113E-07

      iter #   4 total cpu time :  1169.9 secs   av.it.:   8.2
      thresh= 8.434E-05 alpha_mix =  0.700 |ddv_scf|^2 =  1.602E-07

      iter #   5 total cpu time :  1170.4 secs   av.it.:   8.3
      thresh= 4.003E-05 alpha_mix =  0.700 |ddv_scf|^2 =  4.129E-09

      iter #   6 total cpu time :  1170.9 secs   av.it.:   8.3
      thresh= 6.426E-06 alpha_mix =  0.700 |ddv_scf|^2 =  2.454E-12

      iter #   7 total cpu time :  1171.4 secs   av.it.:   8.1
      thresh= 1.566E-07 alpha_mix =  0.700 |ddv_scf|^2 =  1.641E-13

      iter #   8 total cpu time :  1172.0 secs   av.it.:   8.3
      thresh= 4.051E-08 alpha_mix =  0.700 |ddv_scf|^2 =  6.445E-16

     End of self-consistent calculation

     Convergence has been achieved 


     Representation #  3 mode #   3

     Self-consistent Calculation

      iter #   1 total cpu time :  1172.5 secs   av.it.:   5.8
      thresh= 1.000E-02 alpha_mix =  0.700 |ddv_scf|^2 =  9.241E-06

      iter #   2 total cpu time :  1173.0 secs   av.it.:   7.9
      thresh= 3.040E-04 alpha_mix =  0.700 |ddv_scf|^2 =  7.462E-07

      iter #   3 total cpu time :  1173.5 secs   av.it.:   7.2
      thresh= 8.638E-05 alpha_mix =  0.700 |ddv_scf|^2 =  1.047E-08

      iter #   4 total cpu time :  1174.0 secs   av.it.:   7.9
      thresh= 1.023E-05 alpha_mix =  0.700 |ddv_scf|^2 =  8.985E-12

      iter #   5 total cpu time :  1174.5 secs   av.it.:   7.8
      thresh= 2.997E-07 alpha_mix =  0.700 |ddv_scf|^2 =  7.292E-13

      iter #   6 total cpu time :  1174.9 secs   av.it.:   7.1
      thresh= 8.539E-08 alpha_mix =  0.700 |ddv_scf|^2 =  6.079E-16

     End of self-consistent calculation

     Convergence has been achieved 


     Representation #  4 mode #   4

     Self-consistent Calculation

      iter #   1 total cpu time :  1175.3 secs   av.it.:   5.8
      thresh= 1.000E-02 alpha_mix =  0.700 |ddv_scf|^2 =  7.421E-06

      iter #   2 total cpu time :  1175.8 secs   av.it.:   8.0
      thresh= 2.724E-04 alpha_mix =  0.700 |ddv_scf|^2 =  5.944E-07

      iter #   3 total cpu time :  1176.3 secs   av.it.:   7.4
      thresh= 7.710E-05 alpha_mix =  0.700 |ddv_scf|^2 =  1.058E-08

      iter #   4 total cpu time :  1176.7 secs   av.it.:   7.9
      thresh= 1.029E-05 alpha_mix =  0.700 |ddv_scf|^2 =  7.679E-12

      iter #   5 total cpu time :  1177.2 secs   av.it.:   8.0
      thresh= 2.771E-07 alpha_mix =  0.700 |ddv_scf|^2 =  6.314E-13

      iter #   6 total cpu time :  1177.7 secs   av.it.:   7.1
      thresh= 7.946E-08 alpha_mix =  0.700 |ddv_scf|^2 =  6.243E-16

     End of self-consistent calculation

     Convergence has been achieved 


     Representation #  5 mode #   5

     Self-consistent Calculation

      iter #   1 total cpu time :  1178.1 secs   av.it.:   5.2
      thresh= 1.000E-02 alpha_mix =  0.700 |ddv_scf|^2 =  3.971E-06

      iter #   2 total cpu time :  1178.5 secs   av.it.:   7.7
      thresh= 1.993E-04 alpha_mix =  0.700 |ddv_scf|^2 =  2.941E-07

      iter #   3 total cpu time :  1179.0 secs   av.it.:   6.9
      thresh= 5.423E-05 alpha_mix =  0.700 |ddv_scf|^2 =  4.852E-09

      iter #   4 total cpu time :  1179.4 secs   av.it.:   7.4
      thresh= 6.966E-06 alpha_mix =  0.700 |ddv_scf|^2 =  2.689E-12

      iter #   5 total cpu time :  1179.9 secs   av.it.:   7.6
      thresh= 1.640E-07 alpha_mix =  0.700 |ddv_scf|^2 =  4.743E-15

     End of self-consistent calculation

     Convergence has been achieved 


     Representation #  6 mode #   6

     Self-consistent Calculation

      iter #   1 total cpu time :  1180.3 secs   av.it.:   5.2
      thresh= 1.000E-02 alpha_mix =  0.700 |ddv_scf|^2 =  4.822E-06

      iter #   2 total cpu time :  1180.8 secs   av.it.:   7.7
      thresh= 2.196E-04 alpha_mix =  0.700 |ddv_scf|^2 =  3.725E-07

      iter #   3 total cpu time :  1181.2 secs   av.it.:   6.8
      thresh= 6.104E-05 alpha_mix =  0.700 |ddv_scf|^2 =  4.533E-09

      iter #   4 total cpu time :  1181.6 secs   av.it.:   7.5
      thresh= 6.733E-06 alpha_mix =  0.700 |ddv_scf|^2 =  2.032E-12

      iter #   5 total cpu time :  1182.1 secs   av.it.:   7.9
      thresh= 1.425E-07 alpha_mix =  0.700 |ddv_scf|^2 =  5.650E-15

     End of self-consistent calculation

     Convergence has been achieved 

     Number of q in the star =    1
     List of q in the star:
          1  -0.577351205   0.000000000  -0.122970072

     Diagonalizing the dynamical matrix

     q = (   -0.577351205   0.000000000  -0.122970072 ) 

 **************************************************************************
     freq (    1) =      14.321234 [THz] =     477.704943 [cm-1]
     freq (    2) =      18.527957 [THz] =     618.026121 [cm-1]
     freq (    3) =      19.066640 [THz] =     635.994660 [cm-1]
     freq (    4) =      39.739937 [THz] =    1325.581606 [cm-1]
     freq (    5) =      40.487414 [THz] =    1350.514757 [cm-1]
     freq (    6) =      42.109655 [THz] =    1404.626880 [cm-1]
 **************************************************************************

     Mode symmetry, C_2v (mm2)  point group:

     freq (  1 -  1) =        477.7  [cm-1]   --> B_1  D_3  S_3      
     freq (  2 -  2) =        618.0  [cm-1]   --> B_2  D_4  S_4      
     freq (  3 -  3) =        636.0  [cm-1]   --> B_1  D_3  S_3      
     freq (  4 -  4) =       1325.6  [cm-1]   --> A_1  D_1  S_1      
     freq (  5 -  5) =       1350.5  [cm-1]   --> A_1  D_1  S_1      
     freq (  6 -  6) =       1404.6  [cm-1]   --> B_2  D_4  S_4      

     init_run     :      1.12s CPU      1.48s WALL (      20 calls)
     electrons    :     31.12s CPU     46.37s WALL (      20 calls)

     Called by init_run:
     wfcinit      :      0.00s CPU      0.00s WALL (      20 calls)
     potinit      :      0.07s CPU      0.10s WALL (      20 calls)
     hinit0       :      0.94s CPU      1.23s WALL (      20 calls)

     Called by electrons:
     c_bands      :     31.12s CPU     46.36s WALL (      20 calls)
     v_of_rho     :      0.06s CPU      0.08s WALL (      21 calls)
     newd         :      0.03s CPU      0.04s WALL (      21 calls)

     Called by c_bands:
     init_us_2    :      3.89s CPU      4.71s WALL (   90195 calls)
     cegterg      :     25.79s CPU     38.41s WALL (    2944 calls)

     Called by sum_band:

     Called by *egterg:
     h_psi        :    480.16s CPU    725.68s WALL (  710645 calls)
     s_psi        :     26.10s CPU     33.02s WALL ( 1460792 calls)
     g_psi        :      0.10s CPU      0.15s WALL (   27017 calls)
     cdiaghg      :      2.00s CPU      2.72s WALL (   29961 calls)

     Called by h_psi:
     h_psi:pot    :    477.84s CPU    721.39s WALL (  710645 calls)
     h_psi:calbec :     33.99s CPU     57.18s WALL (  710645 calls)
     vloc_psi     :    427.90s CPU    640.74s WALL (  710645 calls)
     add_vuspsi   :     12.36s CPU     16.17s WALL (  710645 calls)

     General routines
     calbec       :     68.98s CPU    113.54s WALL ( 1608135 calls)
     fft          :      2.80s CPU      5.02s WALL (   16501 calls)
     ffts         :      1.07s CPU      1.47s WALL (   10086 calls)
     fftw         :    507.00s CPU    756.03s WALL ( 6263056 calls)
     davcio       :      2.30s CPU      5.40s WALL (  385017 calls)

     Parallel routines
     fft_scatt_xy :     30.97s CPU     45.87s WALL ( 6289643 calls)
     fft_scatt_yz :    220.13s CPU    371.41s WALL ( 6289643 calls)

     PHONON       : 12m50.60s CPU    19m42.12s WALL

     INITIALIZATION: 
     phq_setup    :      0.23s CPU      0.30s WALL (      21 calls)
     phq_init     :      9.20s CPU     13.31s WALL (      21 calls)

     phq_init     :      9.20s CPU     13.31s WALL (      21 calls)
     set_drhoc    :      1.50s CPU      1.51s WALL (      63 calls)
     init_vloc    :      0.28s CPU      0.28s WALL (      21 calls)
     init_us_1    :      0.29s CPU      0.49s WALL (      21 calls)
     newd         :      0.03s CPU      0.04s WALL (      21 calls)
     dvanqq       :      0.32s CPU      0.42s WALL (      21 calls)
     drho         :      5.59s CPU      8.43s WALL (      21 calls)

     DYNAMICAL MATRIX:
     dynmat0      :      1.82s CPU      2.45s WALL (      21 calls)
     phqscf       :    720.36s CPU   1107.46s WALL (      21 calls)
     dynmatrix    :      0.05s CPU      0.11s WALL (      21 calls)

     phqscf       :    720.36s CPU   1107.46s WALL (      21 calls)
     solve_linter :    717.27s CPU   1101.66s WALL (     126 calls)
     drhodv       :      2.51s CPU      4.09s WALL (     126 calls)

     dynmat0      :      1.82s CPU      2.45s WALL (      21 calls)
     dynmat_us    :      0.66s CPU      1.05s WALL (      21 calls)
     d2ionq       :      0.01s CPU      0.02s WALL (      21 calls)
     dynmatcc     :      1.09s CPU      1.21s WALL (      21 calls)

     dynmat_us    :      0.66s CPU      1.05s WALL (      21 calls)
     addusdynmat  :      0.00s CPU      0.00s WALL (      21 calls)

     phqscf       :    720.36s CPU   1107.46s WALL (      21 calls)
     solve_linter :    717.27s CPU   1101.66s WALL (     126 calls)

     solve_linter :    717.27s CPU   1101.66s WALL (     126 calls)
     dvqpsi_us    :      8.75s CPU     12.14s WALL (    9204 calls)
     ortho        :      8.27s CPU     13.06s WALL (   72314 calls)
     cgsolve      :    581.68s CPU    893.13s WALL (   72314 calls)
     incdrhoscf   :     55.73s CPU     85.50s WALL (   72314 calls)
     addusddens   :      2.30s CPU      2.72s WALL (    1088 calls)
     vpsifft      :     45.53s CPU     66.55s WALL (   62552 calls)
     dv_of_drho   :      1.53s CPU      2.10s WALL (     986 calls)
     mix_pot      :      0.68s CPU      2.70s WALL (     969 calls)
     psymdvscf    :      3.92s CPU      4.13s WALL (     746 calls)
     newdq        :      2.24s CPU      3.11s WALL (     969 calls)
     adddvscf     :      1.54s CPU      1.98s WALL (   63110 calls)
     drhodvus     :      0.05s CPU      0.12s WALL (     126 calls)

     dvqpsi_us    :      8.75s CPU     12.14s WALL (    9204 calls)
     dvqpsi_us_on :      1.06s CPU      1.17s WALL (    9204 calls)

     cgsolve      :    581.68s CPU    893.13s WALL (   72314 calls)
     ch_psi       :    548.43s CPU    835.61s WALL (  677740 calls)

     ch_psi       :    548.43s CPU    835.61s WALL (  677740 calls)
     h_psi        :    480.16s CPU    725.68s WALL (  710645 calls)
     last         :     71.47s CPU    114.06s WALL (  677740 calls)

     h_psi        :    480.16s CPU    725.68s WALL (  710645 calls)
     add_vuspsi   :     12.36s CPU     16.17s WALL (  710645 calls)

     incdrhoscf   :     55.73s CPU     85.50s WALL (   72314 calls)
     addusdbec    :      5.83s CPU      9.08s WALL (   81332 calls)

     drhodvus     :      0.05s CPU      0.12s WALL (     126 calls)

      General routines
     calbec       :     68.98s CPU    113.54s WALL ( 1608135 calls)
     fft          :      2.80s CPU      5.02s WALL (   16501 calls)
     ffts         :      1.07s CPU      1.47s WALL (   10086 calls)
     fftw         :    507.00s CPU    756.03s WALL ( 6263056 calls)
     davcio       :      2.30s CPU      5.40s WALL (  385017 calls)
     write_rec    :      1.37s CPU      5.88s WALL (    1095 calls)


     PHONON       : 12m50.60s CPU    19m42.12s WALL


   This run was terminated on:  11:44: 9   8Mar2023            

=------------------------------------------------------------------------------=
   JOB DONE.
=------------------------------------------------------------------------------=
