
     Program PHONON v.6.3MaX starts on 12Mar2023 at 17:52:58 

     This program is part of the open-source Quantum ESPRESSO suite
     for quantum simulation of materials; please cite
         "P. Giannozzi et al., J. Phys.:Condens. Matter 21 395502 (2009);
         "P. Giannozzi et al., J. Phys.:Condens. Matter 29 465901 (2017);
          URL http://www.quantum-espresso.org", 
     in publications or presentations arising from this work. More details at
     http://www.quantum-espresso.org/quote

     Parallel version (MPI), running on     8 processors

     MPI processes distributed on     1 nodes
     R & G space division:  proc/nbgrp/npool/nimage =       8

     Reading data from directory:
     ./GraphPhon.save/
     Message from routine volume:
     axis vectors are left-handed
     Message from routine volume:
     axis vectors are left-handed

     IMPORTANT: XC functional enforced from input :
     Exchange-correlation      = PBE ( 1  4  3  4 0 0)
     Any further DFT definition will be discarded
     Please, verify this is what you really want


     Parallelization info
     --------------------
     sticks:   dense  smooth     PW     G-vecs:    dense   smooth      PW
     Min          30      30     10                 1518     1518     316
     Max          31      31     11                 1529     1529     331
     Sum         241     241     85                12161    12161    2589


     Check: negative/imaginary core charge=   -0.000019    0.000000

     negative rho (up, down):  1.156E-03 0.000E+00


     Dynamical matrices for ( 1, 1, 1)  uniform grid of q-points
     (   1 q-points):
       N         xq(1)         xq(2)         xq(3) 
       1   0.000000000   0.000000000   0.000000000

     Calculation of q =    0.0000000   0.0000000   0.0000000

     Phonon calculation graphene at Gamma                                       

     bravais-lattice index     =            0
     lattice parameter (alat)  =       4.6476  a.u.
     unit-cell volume          =     353.4961 (a.u.)^3
     number of atoms/cell      =            2
     number of atomic types    =            1
     kinetic-energy cut-off    =      40.0000  Ry
     charge density cut-off    =     160.0000  Ry
     convergence threshold     =      1.0E-14
     beta                      =       0.7000
     number of iterations used =            4
     Exchange-correlation      = PBE ( 1  4  3  4 0 0)


     celldm(1)=    8.04985  celldm(2)=    0.57735  celldm(3)=    2.34753
     celldm(4)=    0.00000  celldm(5)=    0.00000  celldm(6)=    0.00000

     crystal axes: (cart. coord. in units of alat)
               a(1) = (  0.8660  0.5000  0.0000 )  
               a(2) = (  0.8660 -0.5000  0.0000 )  
               a(3) = (  0.0000  0.0000  4.0660 )  

     reciprocal axes: (cart. coord. in units 2 pi/alat)
               b(1) = (  0.5774  1.0000 -0.0000 )  
               b(2) = (  0.5774 -1.0000 -0.0000 )  
               b(3) = ( -0.0000 -0.0000  0.2459 )  


     Atoms inside the unit cell: 

     Cartesian axes

     site n.  atom      mass           positions (alat units)
        1     C   12.0110   tau(    1) = (    0.00000    0.00000    0.00000  )
        2     C   12.0110   tau(    2) = (    0.57735    0.00000    0.00000  )

     Computing dynamical matrix for 
                    q = (   0.0000000   0.0000000   0.0000000 )

      5 Sym.Ops. (with q -> -q+G )


     G cutoff =   87.5420  (   1520 G-vectors)     FFT grid: ( 20, 20, 80)
     number of k points=    31

     PseudoPot. # 1 for C  read from file:
     /q-e-qe-6.3/pseudo/C.pbe-n-rrkjus_psl.1.0.0.UPF
     MD5 check sum: 1fdd950c42eb37d8afe3dd2f8d12311e
     Pseudo is Ultrasoft + core correction, Zval =  4.0
     Generated using "atomic" code by A. Dal Corso v.6.3MaX
     Using radial grid of 1073 points,  4 beta functions with: 
                l(1) =   0
                l(2) =   0
                l(3) =   1
                l(4) =   1
     Q(r) pseudized with 0 coefficients 


     Mode symmetry, C_2v (mm2)  point group:


     Electric field:
     Dielectric constant
     Born effective charges in two ways 


     Atomic displacements:
     There are   6 irreducible representations

     Representation     1      1 modes -A_1  D_1  S_1  To be done

     Representation     2      1 modes -A_1  D_1  S_1  To be done

     Representation     3      1 modes -B_1  D_3  S_3  To be done

     Representation     4      1 modes -B_1  D_3  S_3  To be done

     Representation     5      1 modes -B_2  D_4  S_4  To be done

     Representation     6      1 modes -B_2  D_4  S_4  To be done



     Alpha used in Ewald sum =   1.7000

     negative rho (up, down):  1.156E-03 0.000E+00
     PHONON       :     0.72s CPU         0.90s WALL


     Electric Fields Calculation

      iter #   1 total cpu time :     3.5 secs   av.it.:   5.2
      thresh= 1.000E-02 alpha_mix =  0.700 |ddv_scf|^2 =  2.340E-05

      iter #   2 total cpu time :     4.5 secs   av.it.:   6.6
      thresh= 4.837E-04 alpha_mix =  0.700 |ddv_scf|^2 =  1.386E-05

      iter #   3 total cpu time :     5.4 secs   av.it.:   5.2
      thresh= 3.722E-04 alpha_mix =  0.700 |ddv_scf|^2 =  8.363E-08

      iter #   4 total cpu time :     6.8 secs   av.it.:   7.1
      thresh= 2.892E-05 alpha_mix =  0.700 |ddv_scf|^2 =  4.073E-10

      iter #   5 total cpu time :     8.1 secs   av.it.:   7.3
      thresh= 2.018E-06 alpha_mix =  0.700 |ddv_scf|^2 =  5.614E-12

      iter #   6 total cpu time :     9.6 secs   av.it.:   7.7
      thresh= 2.369E-07 alpha_mix =  0.700 |ddv_scf|^2 =  2.256E-14

      iter #   7 total cpu time :    11.1 secs   av.it.:   8.2
      thresh= 1.502E-08 alpha_mix =  0.700 |ddv_scf|^2 =  4.207E-16

     End of electric fields calculation

          Dielectric constant in cartesian axis 

          (       4.352007410       0.000000000       0.000000000 )
          (       0.000000000       4.352027436       0.000000000 )
          (       0.000000000       0.000000000       1.262725368 )

          Effective charges (d Force / dE) in cartesian axis

           atom      1   C  
      Ex  (        0.05555        0.00000        0.00000 )
      Ey  (        0.00000        0.05557        0.00000 )
      Ez  (       -0.00000       -0.00000       -0.00179 )
           atom      2   C  
      Ex  (        0.06053        0.00000        0.00000 )
      Ey  (        0.00000        0.06053        0.00000 )
      Ez  (        0.00000        0.00000       -0.00067 )


     Representation #  1 mode #   1

     Self-consistent Calculation

      iter #   1 total cpu time :    12.8 secs   av.it.:   5.4
      thresh= 1.000E-02 alpha_mix =  0.700 |ddv_scf|^2 =  1.319E-06

      iter #   2 total cpu time :    13.2 secs   av.it.:   8.2
      thresh= 1.149E-04 alpha_mix =  0.700 |ddv_scf|^2 =  7.041E-08

      iter #   3 total cpu time :    13.5 secs   av.it.:   7.2
      thresh= 2.653E-05 alpha_mix =  0.700 |ddv_scf|^2 =  1.629E-09

      iter #   4 total cpu time :    13.9 secs   av.it.:   7.3
      thresh= 4.036E-06 alpha_mix =  0.700 |ddv_scf|^2 =  4.066E-12

      iter #   5 total cpu time :    14.4 secs   av.it.:   7.5
      thresh= 2.016E-07 alpha_mix =  0.700 |ddv_scf|^2 =  1.259E-14

      iter #   6 total cpu time :    15.1 secs   av.it.:   8.3
      thresh= 1.122E-08 alpha_mix =  0.700 |ddv_scf|^2 =  5.835E-16

     End of self-consistent calculation

     Convergence has been achieved 


     Representation #  2 mode #   2

     Self-consistent Calculation

      iter #   1 total cpu time :    15.9 secs   av.it.:   5.4
      thresh= 1.000E-02 alpha_mix =  0.700 |ddv_scf|^2 =  2.012E-06

      iter #   2 total cpu time :    16.5 secs   av.it.:   8.1
      thresh= 1.418E-04 alpha_mix =  0.700 |ddv_scf|^2 =  1.176E-07

      iter #   3 total cpu time :    17.1 secs   av.it.:   7.1
      thresh= 3.430E-05 alpha_mix =  0.700 |ddv_scf|^2 =  2.094E-09

      iter #   4 total cpu time :    17.6 secs   av.it.:   7.3
      thresh= 4.577E-06 alpha_mix =  0.700 |ddv_scf|^2 =  4.466E-12

      iter #   5 total cpu time :    18.4 secs   av.it.:   7.8
      thresh= 2.113E-07 alpha_mix =  0.700 |ddv_scf|^2 =  1.759E-14

      iter #   6 total cpu time :    19.0 secs   av.it.:   8.2
      thresh= 1.326E-08 alpha_mix =  0.700 |ddv_scf|^2 =  8.892E-16

     End of self-consistent calculation

     Convergence has been achieved 


     Representation #  3 mode #   3

     Self-consistent Calculation

      iter #   1 total cpu time :    19.6 secs   av.it.:   5.6
      thresh= 1.000E-02 alpha_mix =  0.700 |ddv_scf|^2 =  8.803E-05

      iter #   2 total cpu time :    20.0 secs   av.it.:   7.6
      thresh= 9.382E-04 alpha_mix =  0.700 |ddv_scf|^2 =  6.728E-05

      iter #   3 total cpu time :    20.6 secs   av.it.:   7.0
      thresh= 8.202E-04 alpha_mix =  0.700 |ddv_scf|^2 =  8.684E-08

      iter #   4 total cpu time :    21.0 secs   av.it.:   6.8
      thresh= 2.947E-05 alpha_mix =  0.700 |ddv_scf|^2 =  3.186E-10

      iter #   5 total cpu time :    21.5 secs   av.it.:   7.3
      thresh= 1.785E-06 alpha_mix =  0.700 |ddv_scf|^2 =  1.268E-11

      iter #   6 total cpu time :    21.9 secs   av.it.:   7.0
      thresh= 3.561E-07 alpha_mix =  0.700 |ddv_scf|^2 =  2.787E-14

      iter #   7 total cpu time :    22.3 secs   av.it.:   7.5
      thresh= 1.669E-08 alpha_mix =  0.700 |ddv_scf|^2 =  2.349E-16

     End of self-consistent calculation

     Convergence has been achieved 


     Representation #  4 mode #   4

     Self-consistent Calculation

      iter #   1 total cpu time :    22.7 secs   av.it.:   5.6
      thresh= 1.000E-02 alpha_mix =  0.700 |ddv_scf|^2 =  8.829E-05

      iter #   2 total cpu time :    23.1 secs   av.it.:   7.6
      thresh= 9.396E-04 alpha_mix =  0.700 |ddv_scf|^2 =  6.718E-05

      iter #   3 total cpu time :    23.4 secs   av.it.:   7.0
      thresh= 8.196E-04 alpha_mix =  0.700 |ddv_scf|^2 =  7.959E-08

      iter #   4 total cpu time :    23.7 secs   av.it.:   6.8
      thresh= 2.821E-05 alpha_mix =  0.700 |ddv_scf|^2 =  3.002E-10

      iter #   5 total cpu time :    24.0 secs   av.it.:   7.1
      thresh= 1.733E-06 alpha_mix =  0.700 |ddv_scf|^2 =  1.503E-11

      iter #   6 total cpu time :    24.3 secs   av.it.:   6.8
      thresh= 3.877E-07 alpha_mix =  0.700 |ddv_scf|^2 =  2.256E-14

      iter #   7 total cpu time :    24.7 secs   av.it.:   7.6
      thresh= 1.502E-08 alpha_mix =  0.700 |ddv_scf|^2 =  2.519E-16

     End of self-consistent calculation

     Convergence has been achieved 


     Representation #  5 mode #   5

     Self-consistent Calculation

      iter #   1 total cpu time :    25.0 secs   av.it.:   5.3
      thresh= 1.000E-02 alpha_mix =  0.700 |ddv_scf|^2 =  2.025E-06

      iter #   2 total cpu time :    25.5 secs   av.it.:   8.0
      thresh= 1.423E-04 alpha_mix =  0.700 |ddv_scf|^2 =  1.184E-07

      iter #   3 total cpu time :    25.9 secs   av.it.:   7.0
      thresh= 3.441E-05 alpha_mix =  0.700 |ddv_scf|^2 =  2.110E-09

      iter #   4 total cpu time :    26.2 secs   av.it.:   7.2
      thresh= 4.593E-06 alpha_mix =  0.700 |ddv_scf|^2 =  4.528E-12

      iter #   5 total cpu time :    26.6 secs   av.it.:   7.6
      thresh= 2.128E-07 alpha_mix =  0.700 |ddv_scf|^2 =  9.370E-15

     End of self-consistent calculation

     Convergence has been achieved 


     Representation #  6 mode #   6

     Self-consistent Calculation

      iter #   1 total cpu time :    27.1 secs   av.it.:   5.3
      thresh= 1.000E-02 alpha_mix =  0.700 |ddv_scf|^2 =  1.285E-06

      iter #   2 total cpu time :    27.5 secs   av.it.:   8.1
      thresh= 1.133E-04 alpha_mix =  0.700 |ddv_scf|^2 =  6.807E-08

      iter #   3 total cpu time :    27.9 secs   av.it.:   7.0
      thresh= 2.609E-05 alpha_mix =  0.700 |ddv_scf|^2 =  1.609E-09

      iter #   4 total cpu time :    28.3 secs   av.it.:   7.3
      thresh= 4.012E-06 alpha_mix =  0.700 |ddv_scf|^2 =  4.106E-12

      iter #   5 total cpu time :    28.7 secs   av.it.:   7.5
      thresh= 2.026E-07 alpha_mix =  0.700 |ddv_scf|^2 =  5.074E-15

     End of self-consistent calculation

     Convergence has been achieved 

     Number of q in the star =    1
     List of q in the star:
          1   0.000000000   0.000000000   0.000000000

          Dielectric constant in cartesian axis 

          (       4.352007410       0.000000000       0.000000000 )
          (       0.000000000       4.352027436       0.000000000 )
          (       0.000000000       0.000000000       1.262725368 )

          Effective charges (d Force / dE) in cartesian axis

           atom      1   C  
      Ex  (        0.05555        0.00000        0.00000 )
      Ey  (        0.00000        0.05557        0.00000 )
      Ez  (       -0.00000       -0.00000       -0.00179 )
           atom      2   C  
      Ex  (        0.06053        0.00000        0.00000 )
      Ey  (        0.00000        0.06053        0.00000 )
      Ez  (        0.00000        0.00000       -0.00067 )

          Effective charges (d P / du) in cartesian axis 

           atom      1   C  
      Px  (        0.05555        0.00000        0.00000 )
      Py  (        0.00000        0.05554        0.00000 )
      Pz  (       -0.00000       -0.00000       -0.00175 )
           atom      2   C  
      Px  (        0.06052        0.00000        0.00000 )
      Py  (        0.00000        0.06050       -0.00000 )
      Pz  (        0.00000        0.00000       -0.00064 )

     Diagonalizing the dynamical matrix

     q = (    0.000000000   0.000000000   0.000000000 ) 

 **************************************************************************
     freq (    1) =      -1.128866 [THz] =     -37.654905 [cm-1]
     freq (    2) =      -1.085602 [THz] =     -36.211775 [cm-1]
     freq (    3) =       4.088182 [THz] =     136.367078 [cm-1]
     freq (    4) =      26.509697 [THz] =     884.268321 [cm-1]
     freq (    5) =      47.453567 [THz] =    1582.880600 [cm-1]
     freq (    6) =      47.454705 [THz] =    1582.918567 [cm-1]
 **************************************************************************

     Mode symmetry, C_2v (mm2)  point group:

     freq (  1 -  1) =        -37.7  [cm-1]   --> B_2  D_4  S_4   I+R
     freq (  2 -  2) =        -36.2  [cm-1]   --> A_1  D_1  S_1   I+R
     freq (  3 -  3) =        136.4  [cm-1]   --> B_1  D_3  S_3   I+R
     freq (  4 -  4) =        884.3  [cm-1]   --> B_1  D_3  S_3   I+R
     freq (  5 -  5) =       1582.9  [cm-1]   --> A_1  D_1  S_1   I+R
     freq (  6 -  6) =       1582.9  [cm-1]   --> B_2  D_4  S_4   I+R

     PHONON       :    20.66s CPU        28.77s WALL

     INITIALIZATION: 
     phq_setup    :      0.01s CPU      0.02s WALL (       1 calls)
     phq_init     :      0.28s CPU      0.30s WALL (       1 calls)

     phq_init     :      0.28s CPU      0.30s WALL (       1 calls)
     set_drhoc    :      0.10s CPU      0.10s WALL (       3 calls)
     init_vloc    :      0.02s CPU      0.02s WALL (       1 calls)
     init_us_1    :      0.01s CPU      0.02s WALL (       1 calls)
     newd         :      0.00s CPU      0.00s WALL (       1 calls)
     dvanqq       :      0.02s CPU      0.02s WALL (       1 calls)
     drho         :      0.10s CPU      0.12s WALL (       1 calls)
     cmpt_qdipol  :      0.00s CPU      0.00s WALL (       1 calls)

     DIELECTRIC CONSTANT AND EFFECTIVE CHARGES:
     solve_e      :      7.22s CPU     10.18s WALL (       1 calls)
     dielec       :      0.00s CPU      0.01s WALL (       1 calls)
     zstar_eu     :      0.85s CPU      1.18s WALL (       1 calls)

     DYNAMICAL MATRIX:
     dynmat0      :      0.09s CPU      0.09s WALL (       1 calls)
     phqscf       :     11.86s CPU     16.49s WALL (       1 calls)
     dynmatrix    :      0.00s CPU      0.00s WALL (       1 calls)

     phqscf       :     11.86s CPU     16.49s WALL (       1 calls)
     solve_linter :     11.43s CPU     15.85s WALL (       6 calls)
     drhodv       :      0.05s CPU      0.09s WALL (       6 calls)
     add_zstar_ue :      0.01s CPU      0.03s WALL (       6 calls)
     add_zstar_us :      0.35s CPU      0.48s WALL (       6 calls)

     dynmat0      :      0.09s CPU      0.09s WALL (       1 calls)
     dynmat_us    :      0.02s CPU      0.02s WALL (       1 calls)
     d2ionq       :      0.00s CPU      0.00s WALL (       1 calls)
     dynmatcc     :      0.07s CPU      0.07s WALL (       1 calls)

     dynmat_us    :      0.02s CPU      0.02s WALL (       1 calls)
     addusdynmat  :      0.00s CPU      0.00s WALL (       1 calls)

     phqscf       :     11.86s CPU     16.49s WALL (       1 calls)
     solve_linter :     11.43s CPU     15.85s WALL (       6 calls)

     solve_linter :     11.43s CPU     15.85s WALL (       6 calls)
     dvqpsi_us    :      0.47s CPU      0.63s WALL (     372 calls)
     ortho        :      0.21s CPU      0.29s WALL (    1860 calls)
     cgsolve      :     14.55s CPU     20.29s WALL (    1860 calls)
     incdrhoscf   :      1.55s CPU      2.20s WALL (    1860 calls)
     addusddens   :      0.10s CPU      0.12s WALL (      42 calls)
     vpsifft      :      0.70s CPU      0.95s WALL (     930 calls)
     dv_of_drho   :      0.09s CPU      0.16s WALL (      60 calls)
     mix_pot      :      0.02s CPU      0.08s WALL (      43 calls)
     psymdvscf    :      0.28s CPU      0.29s WALL (      36 calls)
     newdq        :      0.14s CPU      0.18s WALL (      43 calls)
     adddvscf     :      0.05s CPU      0.05s WALL (    1488 calls)
     drhodvus     :      0.00s CPU      0.00s WALL (       6 calls)

     dvqpsi_us    :      0.47s CPU      0.63s WALL (     372 calls)
     dvqpsi_us_on :      0.05s CPU      0.05s WALL (     372 calls)

     cgsolve      :     14.55s CPU     20.29s WALL (    1860 calls)
     ch_psi       :     13.87s CPU     19.24s WALL (   16915 calls)

     ch_psi       :     13.87s CPU     19.24s WALL (   16915 calls)
     h_psi        :     11.56s CPU     15.95s WALL (   16915 calls)
     last         :      1.70s CPU      2.46s WALL (   16915 calls)

     h_psi        :     11.56s CPU     15.95s WALL (   16915 calls)
     add_vuspsi   :      0.37s CPU      0.47s WALL (   16915 calls)

     incdrhoscf   :      1.55s CPU      2.20s WALL (    1860 calls)
     addusdbec    :      0.12s CPU      0.19s WALL (    2046 calls)

     drhodvus     :      0.00s CPU      0.00s WALL (       6 calls)

      General routines
     calbec       :      2.01s CPU      2.88s WALL (   47904 calls)
     fft          :      0.18s CPU      0.31s WALL (    1097 calls)
     ffts         :      0.07s CPU      0.10s WALL (     414 calls)
     fftw         :     12.41s CPU     17.02s WALL (  148650 calls)
     davcio       :      0.08s CPU      0.18s WALL (   12173 calls)
     write_rec    :      0.07s CPU      0.16s WALL (      49 calls)


     PHONON       :    20.66s CPU        28.77s WALL


   This run was terminated on:  17:53:27  12Mar2023            

=------------------------------------------------------------------------------=
   JOB DONE.
=------------------------------------------------------------------------------=
