
     Program PWSCF v.6.3MaX starts on  8Mar2023 at 11:17:54 

     This program is part of the open-source Quantum ESPRESSO suite
     for quantum simulation of materials; please cite
         "P. Giannozzi et al., J. Phys.:Condens. Matter 21 395502 (2009);
         "P. Giannozzi et al., J. Phys.:Condens. Matter 29 465901 (2017);
          URL http://www.quantum-espresso.org", 
     in publications or presentations arising from this work. More details at
     http://www.quantum-espresso.org/quote

     Parallel version (MPI), running on     4 processors

     MPI processes distributed on     1 nodes
     R & G space division:  proc/nbgrp/npool/nimage =       4
     Waiting for input...
     Reading input from standard input

     Current dimensions of program PWSCF are:
     Max number of different atomic species (ntypx) = 10
     Max number of k-points (npk) =  40000
     Max angular momentum in pseudopotentials (lmaxx) =  3
     Message from routine volume:
     axis vectors are left-handed

     Subspace diagonalization in iterative solution of the eigenvalue problem:
     a serial algorithm will be used


     Parallelization info
     --------------------
     sticks:   dense  smooth     PW     G-vecs:    dense   smooth      PW
     Min          60      60     21                 3036     3036     643
     Max          61      61     22                 3049     3049     658
     Sum         241     241     85                12161    12161    2589



     bravais-lattice index     =            0
     lattice parameter (alat)  =       4.6476  a.u.
     unit-cell volume          =     353.4961 (a.u.)^3
     number of atoms/cell      =            2
     number of atomic types    =            1
     number of electrons       =         8.00
     number of Kohn-Sham states=            4
     kinetic-energy cutoff     =      40.0000  Ry
     charge density cutoff     =     160.0000  Ry
     convergence threshold     =      1.0E-10
     mixing beta               =       0.7000
     number of iterations used =            8  plain     mixing
     Exchange-correlation      = PBE ( 1  4  3  4 0 0)

     celldm(1)=   4.647592  celldm(2)=   0.000000  celldm(3)=   0.000000
     celldm(4)=   0.000000  celldm(5)=   0.000000  celldm(6)=   0.000000

     crystal axes: (cart. coord. in units of alat)
               a(1) = (   0.866024   0.500000   0.000000 )  
               a(2) = (   0.866024  -0.500000   0.000000 )  
               a(3) = (   0.000000   0.000000   4.066030 )  

     reciprocal axes: (cart. coord. in units 2 pi/alat)
               b(1) = (  0.577351  1.000000 -0.000000 )  
               b(2) = (  0.577351 -1.000000 -0.000000 )  
               b(3) = ( -0.000000 -0.000000  0.245940 )  


     PseudoPot. # 1 for C  read from file:
     /q-e-qe-6.3/pseudo/C.pbe-n-rrkjus_psl.1.0.0.UPF
     MD5 check sum: 1fdd950c42eb37d8afe3dd2f8d12311e
     Pseudo is Ultrasoft + core correction, Zval =  4.0
     Generated using "atomic" code by A. Dal Corso v.6.3MaX
     Using radial grid of 1073 points,  4 beta functions with: 
                l(1) =   0
                l(2) =   0
                l(3) =   1
                l(4) =   1
     Q(r) pseudized with 0 coefficients 


     atomic species   valence    mass     pseudopotential
        C              4.00    12.01100     C ( 1.00)

      4 Sym. Ops. (no inversion) found



   Cartesian axes

     site n.     atom                  positions (alat units)
         1           C   tau(   1) = (   0.0000000   0.0000000   0.0000000  )
         2           C   tau(   2) = (   0.5773520   0.0000000   0.0000000  )

     number of k points=    31
                       cart. coord. in units 2pi/alat
        k(    1) = (   0.0000000   0.0000000   0.0000000), wk =   0.0200000
        k(    2) = (   0.0577351  -0.1000000   0.0000000), wk =   0.0800000
        k(    3) = (   0.1154702  -0.2000000   0.0000000), wk =   0.0800000
        k(    4) = (   0.1732054  -0.3000000   0.0000000), wk =   0.0800000
        k(    5) = (   0.2309405  -0.4000000   0.0000000), wk =   0.0800000
        k(    6) = (  -0.2886756   0.5000000   0.0000000), wk =   0.0400000
        k(    7) = (   0.1154702   0.0000000   0.0000000), wk =   0.0400000
        k(    8) = (   0.1732054  -0.1000000   0.0000000), wk =   0.0800000
        k(    9) = (   0.2309405  -0.2000000   0.0000000), wk =   0.0800000
        k(   10) = (   0.2886756  -0.3000000   0.0000000), wk =   0.0800000
        k(   11) = (  -0.2309405   0.6000000   0.0000000), wk =   0.0800000
        k(   12) = (  -0.1732054   0.5000000   0.0000000), wk =   0.0800000
        k(   13) = (  -0.1154702   0.4000000   0.0000000), wk =   0.0800000
        k(   14) = (  -0.0577351   0.3000000   0.0000000), wk =   0.0800000
        k(   15) = (   0.0000000   0.2000000   0.0000000), wk =   0.0400000
        k(   16) = (   0.2309405   0.0000000   0.0000000), wk =   0.0400000
        k(   17) = (   0.2886756  -0.1000000   0.0000000), wk =   0.0800000
        k(   18) = (   0.3464107  -0.2000000   0.0000000), wk =   0.0800000
        k(   19) = (  -0.1732054   0.7000000   0.0000000), wk =   0.0800000
        k(   20) = (  -0.1154702   0.6000000   0.0000000), wk =   0.0800000
        k(   21) = (  -0.0577351   0.5000000   0.0000000), wk =   0.0800000
        k(   22) = (   0.0000000   0.4000000   0.0000000), wk =   0.0400000
        k(   23) = (   0.3464107   0.0000000   0.0000000), wk =   0.0400000
        k(   24) = (   0.4041458  -0.1000000   0.0000000), wk =   0.0800000
        k(   25) = (  -0.1154702   0.8000000   0.0000000), wk =   0.0800000
        k(   26) = (  -0.0577351   0.7000000   0.0000000), wk =   0.0800000
        k(   27) = (  -0.0000000   0.6000000   0.0000000), wk =   0.0400000
        k(   28) = (   0.4618810   0.0000000   0.0000000), wk =   0.0400000
        k(   29) = (  -0.0577351   0.9000000   0.0000000), wk =   0.0800000
        k(   30) = (   0.0000000   0.8000000   0.0000000), wk =   0.0400000
        k(   31) = (  -0.5773512   0.0000000   0.0000000), wk =   0.0200000

     Dense  grid:    12161 G-vectors     FFT dimensions: (  20,  20,  80)

     Estimated max dynamical RAM per process >       4.94 MB

     Estimated total dynamical RAM >      19.77 MB

     Check: negative/imaginary core charge=   -0.000019    0.000000

     Initial potential from superposition of free atoms
     Check: negative starting charge=   -0.000421

     starting charge    7.99992, renormalised to    8.00000

     negative rho (up, down):  4.209E-04 0.000E+00
     Starting wfcs are    8 randomized atomic wfcs

     total cpu time spent up to now is        0.7 secs

     Self-consistent Calculation

     iteration #  1     ecut=    40.00 Ry     beta= 0.70
     Davidson diagonalization with overlap
     ethr =  1.00E-02,  avg # of iterations =  2.0

     negative rho (up, down):  9.179E-04 0.000E+00

     total cpu time spent up to now is        1.0 secs

     total energy              =     -24.82340321 Ry
     Harris-Foulkes estimate   =     -24.94779156 Ry
     estimated scf accuracy    <       0.20626683 Ry

     iteration #  2     ecut=    40.00 Ry     beta= 0.70
     Davidson diagonalization with overlap
     ethr =  2.58E-03,  avg # of iterations =  2.0

     negative rho (up, down):  1.061E-03 0.000E+00

     total cpu time spent up to now is        1.4 secs

     total energy              =     -24.85656997 Ry
     Harris-Foulkes estimate   =     -24.85685166 Ry
     estimated scf accuracy    <       0.00265457 Ry

     iteration #  3     ecut=    40.00 Ry     beta= 0.70
     Davidson diagonalization with overlap
     ethr =  3.32E-05,  avg # of iterations =  1.8

     negative rho (up, down):  1.152E-03 0.000E+00

     total cpu time spent up to now is        1.7 secs

     total energy              =     -24.85682992 Ry
     Harris-Foulkes estimate   =     -24.85680527 Ry
     estimated scf accuracy    <       0.00017621 Ry

     iteration #  4     ecut=    40.00 Ry     beta= 0.70
     Davidson diagonalization with overlap
     ethr =  2.20E-06,  avg # of iterations =  1.7

     negative rho (up, down):  1.155E-03 0.000E+00

     total cpu time spent up to now is        2.0 secs

     total energy              =     -24.85684356 Ry
     Harris-Foulkes estimate   =     -24.85684314 Ry
     estimated scf accuracy    <       0.00000056 Ry

     iteration #  5     ecut=    40.00 Ry     beta= 0.70
     Davidson diagonalization with overlap
     ethr =  6.95E-09,  avg # of iterations =  3.6

     negative rho (up, down):  1.156E-03 0.000E+00

     total cpu time spent up to now is        2.5 secs

     total energy              =     -24.85684537 Ry
     Harris-Foulkes estimate   =     -24.85684536 Ry
     estimated scf accuracy    <       0.00000003 Ry

     iteration #  6     ecut=    40.00 Ry     beta= 0.70
     Davidson diagonalization with overlap
     ethr =  3.38E-10,  avg # of iterations =  3.2

     negative rho (up, down):  1.156E-03 0.000E+00

     total cpu time spent up to now is        2.9 secs

     total energy              =     -24.85684537 Ry
     Harris-Foulkes estimate   =     -24.85684538 Ry
     estimated scf accuracy    <       0.00000001 Ry

     iteration #  7     ecut=    40.00 Ry     beta= 0.70
     Davidson diagonalization with overlap
     ethr =  1.55E-10,  avg # of iterations =  2.5

     negative rho (up, down):  1.156E-03 0.000E+00

     total cpu time spent up to now is        3.2 secs

     End of self-consistent calculation

          k = 0.0000 0.0000 0.0000 (  1527 PWs)   bands (ev):

   -20.0107  -8.1032  -3.4938  -3.4936

          k = 0.0577-0.1000 0.0000 (  1526 PWs)   bands (ev):

   -19.7740  -7.8193  -4.4123  -3.9708

          k = 0.1155-0.2000 0.0000 (  1522 PWs)   bands (ev):

   -19.0675  -6.9791  -6.5974  -4.9951

          k = 0.1732-0.3000 0.0000 (  1514 PWs)   bands (ev):

   -17.9041  -9.2201  -5.9916  -5.6291

          k = 0.2309-0.4000 0.0000 (  1512 PWs)   bands (ev):

   -16.3167 -11.8055  -6.6659  -3.9340

          k =-0.2887 0.5000 0.0000 (  1508 PWs)   bands (ev):

   -14.7391 -13.7328  -6.9006  -2.8034

          k = 0.1155 0.0000 0.0000 (  1526 PWs)   bands (ev):

   -19.7740  -7.8193  -4.4121  -3.9709

          k = 0.1732-0.1000 0.0000 (  1517 PWs)   bands (ev):

   -19.3024  -7.2568  -5.7637  -4.9249

          k = 0.2309-0.2000 0.0000 (  1512 PWs)   bands (ev):

   -18.3675  -7.9303  -6.1771  -6.1573

          k = 0.2887-0.3000 0.0000 (  1514 PWs)   bands (ev):

   -16.9902 -10.4486  -7.1001  -4.6027

          k =-0.2309 0.6000 0.0000 (  1508 PWs)   bands (ev):

   -15.2463 -12.8395  -7.5798  -2.9496

          k =-0.1732 0.5000 0.0000 (  1508 PWs)   bands (ev):

   -15.2463 -12.8395  -7.5798  -2.9496

          k =-0.1155 0.4000 0.0000 (  1514 PWs)   bands (ev):

   -16.9902 -10.4486  -7.1001  -4.6027

          k =-0.0577 0.3000 0.0000 (  1512 PWs)   bands (ev):

   -18.3675  -7.9303  -6.1770  -6.1573

          k = 0.0000 0.2000 0.0000 (  1517 PWs)   bands (ev):

   -19.3024  -7.2568  -5.7639  -4.9248

          k = 0.2309 0.0000 0.0000 (  1522 PWs)   bands (ev):

   -19.0675  -6.9791  -6.5973  -4.9952

          k = 0.2887-0.1000 0.0000 (  1512 PWs)   bands (ev):

   -18.3675  -7.9302  -6.1772  -6.1573

          k = 0.3464-0.2000 0.0000 (  1515 PWs)   bands (ev):

   -17.2182  -9.4027  -7.9488  -4.8363

          k =-0.1732 0.7000 0.0000 (  1500 PWs)   bands (ev):

   -15.6604 -11.4038  -9.0251  -3.1535

          k =-0.1155 0.6000 0.0000 (  1502 PWs)   bands (ev):

   -14.1326 -13.1691  -9.3300  -1.9380

          k =-0.0577 0.5000 0.0000 (  1500 PWs)   bands (ev):

   -15.6604 -11.4038  -9.0251  -3.1535

          k = 0.0000 0.4000 0.0000 (  1515 PWs)   bands (ev):

   -17.2182  -9.4028  -7.9487  -4.8363

          k = 0.3464 0.0000 0.0000 (  1514 PWs)   bands (ev):

   -17.9041  -9.2200  -5.9917  -5.6292

          k = 0.4041-0.1000 0.0000 (  1514 PWs)   bands (ev):

   -16.9902 -10.4485  -7.1002  -4.6027

          k =-0.1155 0.8000 0.0000 (  1500 PWs)   bands (ev):

   -15.6604 -11.4037  -9.0252  -3.1535

          k =-0.0577 0.7000 0.0000 (  1497 PWs)   bands (ev):

   -14.0223 -12.3268 -10.6767  -1.4578

          k =-0.0000 0.6000 0.0000 (  1497 PWs)   bands (ev):

   -14.0223 -12.3269 -10.6766  -1.4578

          k = 0.4619 0.0000 0.0000 (  1512 PWs)   bands (ev):

   -16.3167 -11.8054  -6.6660  -3.9340

          k =-0.0577 0.9000 0.0000 (  1508 PWs)   bands (ev):

   -15.2463 -12.8395  -7.5799  -2.9496

          k = 0.0000 0.8000 0.0000 (  1502 PWs)   bands (ev):

   -14.1326 -13.1690  -9.3301  -1.9381

          k =-0.5774 0.0000 0.0000 (  1508 PWs)   bands (ev):

   -14.7391 -13.7327  -6.9007  -2.8034

     highest occupied level (ev):    -1.4578

!    total energy              =     -24.85684538 Ry
     Harris-Foulkes estimate   =     -24.85684538 Ry
     estimated scf accuracy    <          6.7E-11 Ry

     The total energy is the sum of the following terms:

     one-electron contribution =     -90.99387988 Ry
     hartree contribution      =      47.34821721 Ry
     xc contribution           =      -9.28698296 Ry
     ewald contribution        =      28.07580026 Ry

     convergence has been achieved in   7 iterations

     Writing output data file GraphPhon.save/

     init_run     :      0.29s CPU      0.37s WALL (       1 calls)
     electrons    :      1.98s CPU      2.52s WALL (       1 calls)

     Called by init_run:
     wfcinit      :      0.14s CPU      0.20s WALL (       1 calls)
     potinit      :      0.05s CPU      0.05s WALL (       1 calls)
     hinit0       :      0.09s CPU      0.11s WALL (       1 calls)

     Called by electrons:
     c_bands      :      1.60s CPU      2.03s WALL (       7 calls)
     sum_band     :      0.29s CPU      0.37s WALL (       7 calls)
     v_of_rho     :      0.06s CPU      0.08s WALL (       8 calls)
     newd         :      0.03s CPU      0.04s WALL (       8 calls)
     mix_rho      :      0.01s CPU      0.01s WALL (       7 calls)

     Called by c_bands:
     init_us_2    :      0.05s CPU      0.06s WALL (     465 calls)
     cegterg      :      1.52s CPU      1.94s WALL (     217 calls)

     Called by sum_band:
     sum_band:bec :      0.00s CPU      0.00s WALL (     217 calls)
     addusdens    :      0.02s CPU      0.02s WALL (       7 calls)

     Called by *egterg:
     h_psi        :      1.39s CPU      1.78s WALL (     771 calls)
     s_psi        :      0.05s CPU      0.05s WALL (     771 calls)
     g_psi        :      0.00s CPU      0.01s WALL (     523 calls)
     cdiaghg      :      0.04s CPU      0.06s WALL (     740 calls)

     Called by h_psi:
     h_psi:pot    :      1.38s CPU      1.77s WALL (     771 calls)
     h_psi:calbec :      0.08s CPU      0.09s WALL (     771 calls)
     vloc_psi     :      1.27s CPU      1.62s WALL (     771 calls)
     add_vuspsi   :      0.04s CPU      0.05s WALL (     771 calls)

     General routines
     calbec       :      0.10s CPU      0.12s WALL (     988 calls)
     fft          :      0.03s CPU      0.05s WALL (      89 calls)
     ffts         :      0.00s CPU      0.00s WALL (       7 calls)
     fftw         :      1.41s CPU      1.77s WALL (    6328 calls)

     Parallel routines
     fft_scatt_xy :      0.09s CPU      0.13s WALL (    6424 calls)
     fft_scatt_yz :      0.35s CPU      0.57s WALL (    6424 calls)

     PWSCF        :     2.56s CPU         3.24s WALL


   This run was terminated on:  11:17:57   8Mar2023            

=------------------------------------------------------------------------------=
   JOB DONE.
=------------------------------------------------------------------------------=
