ANIMSTEPS   6
CRYSTAL
PRIMVEC
    3.689088036    2.129899423    0.000000000
    3.689088036   -2.129899423    0.000000000
    0.000000000    0.000000000   17.320469902
PRIMCOORD  1
      2   1
   C      0.00000   0.00000   0.00000   0.03639   0.06039  -0.00539
   C      2.45940   0.00000   0.00000   0.03639   0.06039  -0.00539
PRIMCOORD  2
      2   1
   C      0.00000   0.00000   0.00000  -0.02017   0.00613  -0.06749
   C      2.45940   0.00000   0.00000  -0.02017   0.00613  -0.06749
PRIMCOORD  3
      2   1
   C      0.00000   0.00000   0.00000  -0.05717   0.03627   0.02038
   C      2.45940   0.00000   0.00000  -0.05717   0.03627   0.02038
PRIMCOORD  4
      2   1
   C      0.00000   0.00000   0.00000   0.00000  -0.00000  -0.07071
   C      2.45940   0.00000   0.00000   0.00000  -0.00000   0.07071
PRIMCOORD  5
      2   1
   C      0.00000   0.00000   0.00000   0.07071   0.00000   0.00000
   C      2.45940   0.00000   0.00000  -0.07071   0.00000   0.00000
PRIMCOORD  6
      2   1
   C      0.00000   0.00000   0.00000  -0.00000   0.07071  -0.00000
   C      2.45940   0.00000   0.00000   0.00000  -0.07071   0.00000
